<LesHouchesEvents version="1.0">
<header>
<!--
#*********************************************************************
#                                                                    *
#                            MadGraph 5                              *
#                                                                    *
#                           Going Beyond                             *
#                                                                    *
#                   http://madgraph.hep.uiuc.edu                     *
#                   http://madgraph.phys.ucl.ac.be                   *
#                   http://madgraph.roma2.infn.it                    *
#                                                                    *
#                         The MadGraph team                          *
#                                                                    *
#....................................................................*
#                                                                    *
# This file contains all the information necessary to reproduce      *
# the events generated:                                              *
#                                                                    *
# 1. software version                                                *
# 2. proc_card          : code generation info including model       *
# 3. param_card         : model primary parameters in the LH format  *
# 4. run_card           : running parameters (collider and cuts)     *
# 5. pythia_card        : present only if pythia has been run        *
# 6. pgs_card           : present only if pgs has been run           *
# 7. delphes_cards      : present only if delphes has been run       *
#                                                                    *
#                                                                    *
#*********************************************************************
-->
<MGVersion>
# MG    version    : 5.1.3.29
</MGVersion>
<MG5ProcCard>
#************************************************************
#*                        MadGraph 5                        *
#*                                                          *
#*                *                       *                 *
#*                  *        * *        *                   *
#*                    * * * * 5 * * * *                     *
#*                  *        * *        *                   *
#*                *                       *                 *
#*                                                          *
#*                                                          *
#*         VERSION 1.3.29                2011-11-17         *
#*                                                          *
#*    The MadGraph Development Team - Please visit us at    *
#*    https://server06.fynu.ucl.ac.be/projects/madgraph     *
#*                                                          *
#************************************************************
#*                                                          *
#*               Command File for MadGraph 5                *
#*                                                          *
#*     run as ./bin/mg5  filename                           *
#*                                                          *
#************************************************************
import model sm
# Define multiparticle labels
define p = g u c d s u~ c~ d~ s~
define j = g u c d s u~ c~ d~ s~
define l+ = e+ mu+
define l- = e- mu-
define vl = ve vm vt
define vl~ = ve~ vm~ vt~
# Specify process(es) to run
generate p p > e- ve~ @1
add process p p > e- ve~ j @2
add process p p > t t~ @3
# Output processes to MadEvent directory
output -f
</MG5ProcCard>
<MGProcCard>
#*********************************************************************
#                        MadGraph/MadEvent                           *
#                   http://madgraph.hep.uiuc.edu                     *
#                                                                    *
#                          proc_card.dat                             *
#*********************************************************************
#                                                                    *
#            This Files is generated by MADGRAPH 5                   *
#                                                                    *
# WARNING: This Files is generated for MADEVENT (compatibility issue)*
#          This files is NOT a valid MG4 proc_card.dat               *
#          Running this in MG4 will NEVER reproduce the result of MG5*
#                                                                    *
#*********************************************************************
#*********************************************************************
# Process(es) requested : mg2 input                                  *
#*********************************************************************
# Begin PROCESS # This is TAG. Do not modify this line
p p > e- ve~ @1           #Process
# Be carefull the coupling are here in MG5 convention
end_coup           # End the couplings input
done               # this tells MG there are no more procs
# End PROCESS  # This is TAG. Do not modify this line
#*********************************************************************
# Model information                                                  *
#*********************************************************************
# Begin MODEL  # This is TAG. Do not modify this line
sm
# End   MODEL  # This is TAG. Do not modify this line
#*********************************************************************
# Start multiparticle definitions                                    *
#*********************************************************************
# Begin MULTIPARTICLES # This is TAG. Do not modify this line
# End  MULTIPARTICLES # This is TAG. Do not modify this line
</MGProcCard>
<slha>
######################################################################
## PARAM_CARD AUTOMATICALY GENERATED BY MG5 FOLLOWING UFO MODEL   ####
######################################################################
###################################
## INFORMATION FOR MASS
###################################
Block mass 
    5 4.700000e+00 # MB 
    6 1.730000e+02 # MT 
   15 1.777000e+00 # MTA 
   23 9.118800e+01 # MZ 
   25 1.200000e+02 # MH 
##  Not dependent paramater.
## Those values should be edited following the 
## analytical expression. MG5 ignore those values 
## but they are important for interfacing the output of MG5
## to external program such as Pythia.
  12 0.000000 # ve : 0.0 
  14 0.000000 # vm : 0.0 
  16 0.000000 # vt : 0.0 
  2 0.000000 # u : 0.0 
  4 0.000000 # c : 0.0 
  1 0.000000 # d : 0.0 
  3 0.000000 # s : 0.0 
  22 0.000000 # a : 0.0 
  24 80.419002 # w+ : cmath.sqrt(MZ__exp__2/2. + cmath.sqrt(MZ__exp__4/4. - (aEW*cmath.pi*MZ__exp__2)/(Gf*sqrt__2))) 
  21 0.000000 # g : 0.0 
  11 0.000000 # e- : 0.0 
  13 0.000000 # mu- : 0.0 
###################################
## INFORMATION FOR SMINPUTS
###################################
Block sminputs 
    1 1.325070e+02 # aEWM1 
    2 1.166390e-05 # Gf 
    3 1.180000e-01 # aS 
###################################
## INFORMATION FOR YUKAWA
###################################
Block yukawa 
    5 4.200000e+00 # ymb 
    6 1.645000e+02 # ymt 
   15 1.777000e+00 # ymtau 
###################################
## INFORMATION FOR DECAY
###################################
DECAY   6 1.491500e+00 # WT 
DECAY  23 2.441404e+00 # WZ 
DECAY  24 2.047600e+00 # WW 
DECAY  25 5.753088e-03 # WH 
##  Not dependent paramater.
## Those values should be edited following the 
## analytical expression. MG5 ignore those values 
## but they are important for interfacing the output of MG5
## to external program such as Pythia.
DECAY  12 0.000000 # ve : 0.0 
DECAY  14 0.000000 # vm : 0.0 
DECAY  16 0.000000 # vt : 0.0 
DECAY  2 0.000000 # u : 0.0 
DECAY  4 0.000000 # c : 0.0 
DECAY  1 0.000000 # d : 0.0 
DECAY  3 0.000000 # s : 0.0 
DECAY  5 0.000000 # b : 0.0 
DECAY  22 0.000000 # a : 0.0 
DECAY  21 0.000000 # g : 0.0 
DECAY  11 0.000000 # e- : 0.0 
DECAY  13 0.000000 # mu- : 0.0 
DECAY  15 0.000000 # ta- : 0.0 
</slha>
<MGRunCard>
#*********************************************************************
#                       MadGraph/MadEvent                            *
#                  http://madgraph.hep.uiuc.edu                      *
#                                                                    *
#                        run_card.dat                                *
#                                                                    *
#  This file is used to set the parameters of the run.               *
#                                                                    *
#  Some notation/conventions:                                        *
#                                                                    *
#   Lines starting with a '# ' are info or comments                  *
#                                                                    *
#   mind the format:   value    = variable     ! comment             *
#*********************************************************************
#
#*******************                                                 
# Running parameters
#*******************                                                 
#                                                                    
#*********************************************************************
# Tag name for the run (one word)                                    *
#*********************************************************************
  'fermi'     = run_tag ! name of the run 
#*********************************************************************
# Run to generate the grid pack                                      *
#*********************************************************************
  .false.     = gridpack  !True = setting up the grid pack
#*********************************************************************
# Number of events and rnd seed                                      *
# Warning: Do not generate more than 100K event in a single run      *
#*********************************************************************
  10000       = nevents ! Number of unweighted events requested 
      26 = iseed   ! rnd seed (0=assigned automatically=default))
#*********************************************************************
# Collider type and energy                                           *
#*********************************************************************
        1     = lpp1  ! beam 1 type (0=NO PDF)
        1     = lpp2  ! beam 2 type (0=NO PDF)
     7000     = ebeam1  ! beam 1 energy in GeV
     7000     = ebeam2  ! beam 2 energy in GeV
#*********************************************************************
# Beam polarization from -100 (left-handed) to 100 (right-handed)    *
#*********************************************************************
        0     = polbeam1 ! beam polarization for beam 1
        0     = polbeam2 ! beam polarization for beam 2
#*********************************************************************
# PDF CHOICE: this automatically fixes also alpha_s and its evol.    *
#*********************************************************************
 'cteq6l1'    = pdlabel     ! PDF set                                     
#*********************************************************************
# Renormalization and factorization scales                           *
#*********************************************************************
 F        = fixed_ren_scale  ! if .true. use fixed ren scale
 F        = fixed_fac_scale  ! if .true. use fixed fac scale
 91.1880  = scale            ! fixed ren scale
 91.1880  = dsqrt_q2fact1    ! fixed fact scale for pdf1
 91.1880  = dsqrt_q2fact2    ! fixed fact scale for pdf2
 1        = scalefact        ! scale factor for event-by-event scales
#*********************************************************************
# Matching - Warning! ickkw > 1 is still beta
#*********************************************************************
 0        = ickkw            ! 0 no matching, 1 MLM, 2 CKKW matching
 1        = highestmult      ! for ickkw=2, highest mult group
 1        = ktscheme         ! for ickkw=1, 1 Durham kT, 2 Pythia pTE
 1        = alpsfact         ! scale factor for QCD emission vx
 F        = chcluster        ! cluster only according to channel diag
 T        = pdfwgt           ! for ickkw=1, perform pdf reweighting
#*********************************************************************
# Automatic ptj and mjj cuts if xqcut > 0
# (turn off for VBF and single top processes)
#**********************************************************
   T  = auto_ptj_mjj  ! Automatic setting of ptj and mjj
#**********************************************************
#                                                                    
#**********************************
# BW cutoff (M+/-bwcutoff*Gamma)
#**********************************
  15  = bwcutoff      ! (M+/-bwcutoff*Gamma)
#**********************************************************
# Apply pt/E/eta/dr/mij cuts on decay products or not
# (note that etmiss/ptll/ptheavy/ht/sorted cuts always apply)
#**********************************************************
   T  = cut_decays    ! Cut decay products 
#*************************************************************
# Number of helicities to sum per event (0 = all helicities)
# 0 gives more stable result, but longer run time (needed for
# long decay chains e.g.).
# Use >=2 if most helicities contribute, e.g. pure QCD.
#*************************************************************
   0  = nhel          ! Number of helicities used per event
#*******************                                                 
# Standard Cuts
#*******************                                                 
#                                                                    
#*********************************************************************
# Minimum and maximum pt's                                           *
#*********************************************************************
 20  = ptj       ! minimum pt for the jets 
  0  = ptb       ! minimum pt for the b 
 10  = pta       ! minimum pt for the photons 
 10  = ptl       ! minimum pt for the charged leptons 
  0  = misset    ! minimum missing Et (sum of neutrino's momenta)
  0  = ptheavy   ! minimum pt for one heavy final state
 1.0 = ptonium   ! minimum pt for the quarkonium states
 1d5 = ptjmax    ! maximum pt for the jets
 1d5 = ptbmax    ! maximum pt for the b
 1d5 = ptamax    ! maximum pt for the photons
 1d5 = ptlmax    ! maximum pt for the charged leptons
 1d5 = missetmax ! maximum missing Et (sum of neutrino's momenta)
#*********************************************************************
# Minimum and maximum E's (in the lab frame)                         *
#*********************************************************************
  0  = ej     ! minimum E for the jets 
  0  = eb     ! minimum E for the b 
  0  = ea     ! minimum E for the photons 
  0  = el     ! minimum E for the charged leptons 
 1d5  = ejmax ! maximum E for the jets
 1d5  = ebmax ! maximum E for the b
 1d5  = eamax ! maximum E for the photons
 1d5  = elmax ! maximum E for the charged leptons
#*********************************************************************
# Maximum and minimum rapidity                                       *
#*********************************************************************
   5  = etaj    ! max rap for the jets 
 1d2  = etab    ! max rap for the b 
 2.5  = etaa    ! max rap for the photons 
 2.5  = etal    ! max rap for the charged leptons 
 0.6  = etaonium ! max rap for the quarkonium states
 0d0  = etajmin ! min rap for the jets
 0d0  = etabmin ! min rap for the b
 0d0  = etaamin ! min rap for the photons
 0d0  = etalmin ! main rap for the charged leptons
#*********************************************************************
# Minimum and maximum DeltaR distance                                *
#*********************************************************************
 0.4 = drjj    ! min distance between jets 
 0   = drbb    ! min distance between b's 
 0.4 = drll    ! min distance between leptons 
 0.4 = draa    ! min distance between gammas 
 0   = drbj    ! min distance between b and jet 
 0.4 = draj    ! min distance between gamma and jet 
 0.4 = drjl    ! min distance between jet and lepton 
 0   = drab    ! min distance between gamma and b 
 0   = drbl    ! min distance between b and lepton 
 0.4 = dral    ! min distance between gamma and lepton 
 1d2 = drjjmax ! max distance between jets
 1d2 = drbbmax ! max distance between b's
 1d2 = drllmax ! max distance between leptons
 1d2 = draamax ! max distance between gammas
 1d2 = drbjmax ! max distance between b and jet
 1d2 = drajmax ! max distance between gamma and jet
 1d2 = drjlmax ! max distance between jet and lepton
 1d2 = drabmax ! max distance between gamma and b
 1d2 = drblmax ! max distance between b and lepton
 1d2 = dralmax ! maxdistance between gamma and lepton
#*********************************************************************
# Minimum and maximum invariant mass for pairs                       *
#*********************************************************************
 0   = mmjj    ! min invariant mass of a jet pair 
 0   = mmbb    ! min invariant mass of a b pair 
 0   = mmaa    ! min invariant mass of gamma gamma pair
 0   = mmll    ! min invariant mass of l+l- (same flavour) lepton pair
 1d5 = mmjjmax ! max invariant mass of a jet pair
 1d5 = mmbbmax ! max invariant mass of a b pair
 1d5 = mmaamax ! max invariant mass of gamma gamma pair
 1d5 = mmllmax ! max invariant mass of l+l- (same flavour) lepton pair
#*********************************************************************
# Minimum and maximum invariant mass for all letpons                 *
#*********************************************************************
 0   = mmnl    ! min invariant mass for all letpons (l+- and vl) 
 1d5 = mmnlmax ! max invariant mass for all letpons (l+- and vl) 
#*********************************************************************
# Minimum and maximum pt for 4-momenta sum of leptons                *
#*********************************************************************
 0   = ptllmin  ! Minimum pt for 4-momenta sum of leptons(l and vl)
 1d5 = ptllmax  ! Maximum pt for 4-momenta sum of leptons(l and vl)
#*********************************************************************
# Inclusive cuts                                                     *
#*********************************************************************
 0  = xptj ! minimum pt for at least one jet  
 0  = xptb ! minimum pt for at least one b 
 0  = xpta ! minimum pt for at least one photon 
 0  = xptl ! minimum pt for at least one charged lepton 
#*********************************************************************
# Control the pt's of the jets sorted by pt                          *
#*********************************************************************
 0   = ptj1min ! minimum pt for the leading jet in pt
 0   = ptj2min ! minimum pt for the second jet in pt
 0   = ptj3min ! minimum pt for the third jet in pt
 0   = ptj4min ! minimum pt for the fourth jet in pt
 1d5 = ptj1max ! maximum pt for the leading jet in pt 
 1d5 = ptj2max ! maximum pt for the second jet in pt
 1d5 = ptj3max ! maximum pt for the third jet in pt
 1d5 = ptj4max ! maximum pt for the fourth jet in pt
 0   = cutuse  ! reject event if fails any (0) / all (1) jet pt cuts
#*********************************************************************
# Control the Ht(k)=Sum of k leading jets                            *
#*********************************************************************
 0   = htjmin ! minimum jet HT=Sum(jet pt)
 1d5 = htjmax ! maximum jet HT=Sum(jet pt)
 0   = ihtmin  !inclusive Ht for all partons (including b)
 1d5 = ihtmax  !inclusive Ht for all partons (including b)
 0   = ht2min ! minimum Ht for the two leading jets
 0   = ht3min ! minimum Ht for the three leading jets
 0   = ht4min ! minimum Ht for the four leading jets
 1d5 = ht2max ! maximum Ht for the two leading jets
 1d5 = ht3max ! maximum Ht for the three leading jets
 1d5 = ht4max ! maximum Ht for the four leading jets
#*********************************************************************
# WBF cuts                                                           *
#*********************************************************************
 0   = xetamin ! minimum rapidity for two jets in the WBF case  
 0   = deltaeta ! minimum rapidity for two jets in the WBF case 
#*********************************************************************
# maximal pdg code for quark to be considered as a light jet         *
# (otherwise b cuts are applied)                                     *
#*********************************************************************
 4 = maxjetflavor    ! Maximum jet pdg code
#*********************************************************************
# Jet measure cuts                                                   *
#*********************************************************************
 0   = xqcut   ! minimum kt jet measure between partons
#*********************************************************************
</MGRunCard>
<MGGenerationInfo>
#  Number of Events        :       10000
#  Integrated weight (pb)  :  .61811E+04
#  Truncated wgt (pb)      :  .41916E+00
#  Unit wgt                :  .61811E+00
</MGGenerationInfo>
</header>
<init>
     2212     2212  0.70000000000E+04  0.70000000000E+04 0 0 10042 10042 3  3
  0.55558077332E+03  0.14437136401E+01  0.61811000000E+00   3
  0.13051361954E+04  0.33914833235E+01  0.61811000000E+00   2
  0.43203830313E+04  0.11226803036E+02  0.61811000000E+00   1
</init>
<event>
 5   1  0.6181100E+00  0.8028236E+02  0.7957747E-01  0.1326808E+00
        1   -1    0    0  501    0  0.00000000000E+00  0.00000000000E+00  0.11883677796E+03  0.11883677796E+03  0.00000000000E+00 0. -1.
       -2   -1    0    0    0  501  0.00000000000E+00  0.00000000000E+00 -0.13559053588E+02  0.13559053588E+02  0.00000000000E+00 0.  1.
      -24    2    1    2    0    0  0.00000000000E+00  0.00000000000E+00  0.10527772437E+03  0.13239583155E+03  0.80282357726E+02 0.  0.
       11    1    3    3    0    0  0.15662396199E+02 -0.34086549560E+02  0.76199503402E+02  0.84932725344E+02  0.00000000000E+00 0. -1.
      -12    1    3    3    0    0 -0.15662396199E+02  0.34086549560E+02  0.29078220967E+02  0.47463106201E+02  0.00000000000E+00 0.  1.
</event>
<event>
 4   3  0.6181100E+00  0.2048297E+03  0.7957747E-01  0.1152107E+00
       21   -1    0    0  501  502  0.00000000000E+00  0.00000000000E+00  0.40039016274E+03  0.40039016274E+03  0.00000000000E+00 0.  1.
       21   -1    0    0  502  503  0.00000000000E+00  0.00000000000E+00 -0.19720042317E+03  0.19720042317E+03  0.00000000000E+00 0.  1.
        6    1    1    2  501    0  0.25579918300E+02 -0.10663895272E+03  0.30614050120E+03  0.36834386778E+03  0.17300000000E+03 0.  1.
       -6    1    1    2    0  503 -0.25579918300E+02  0.10663895272E+03 -0.10295076163E+03  0.22924671814E+03  0.17300000000E+03 0.  1.
</event>
<event>
 5   1  0.6181100E+00  0.8667054E+02  0.7957747E-01  0.1310563E+00
        3   -1    0    0  501    0  0.00000000000E+00  0.00000000000E+00  0.14527333785E+02  0.14527333785E+02  0.00000000000E+00 0. -1.
       -4   -1    0    0    0  501  0.00000000000E+00  0.00000000000E+00 -0.12926981760E+03  0.12926981760E+03  0.00000000000E+00 0.  1.
      -24    2    1    2    0    0  0.00000000000E+00  0.00000000000E+00 -0.11474248381E+03  0.14379715138E+03  0.86670543753E+02 0.  0.
       11    1    3    3    0    0  0.36381035457E+02  0.47501243546E+01 -0.19110455322E+02  0.41368501604E+02  0.00000000000E+00 0. -1.
      -12    1    3    3    0    0 -0.36381035457E+02 -0.47501243546E+01 -0.95632028492E+02  0.10242864978E+03  0.00000000000E+00 0.  1.
</event>
<event>
 4   3  0.6181100E+00  0.2659965E+03  0.7957747E-01  0.1111285E+00
       21   -1    0    0  501  502  0.00000000000E+00  0.00000000000E+00  0.95340965638E+03  0.95340965638E+03  0.00000000000E+00 0.  1.
       21   -1    0    0  502  503  0.00000000000E+00  0.00000000000E+00 -0.31186221417E+03  0.31186221417E+03  0.00000000000E+00 0.  1.
        6    1    1    2  501    0 -0.20082282844E+03  0.22256392860E+02  0.87303151480E+03  0.91265446981E+03  0.17300000000E+03 0.  1.
       -6    1    1    2    0  503  0.20082282844E+03 -0.22256392860E+02 -0.23148407259E+03  0.35261740074E+03  0.17300000000E+03 0.  1.
</event>
<event>
 5   1  0.6181100E+00  0.8191357E+02  0.7957747E-01  0.1322501E+00
       -2   -1    0    0    0  501  0.00000000000E+00  0.00000000000E+00  0.46407954264E+03  0.46407954264E+03  0.00000000000E+00 0.  1.
        1   -1    0    0  501    0  0.00000000000E+00  0.00000000000E+00 -0.36145918271E+01  0.36145918271E+01  0.00000000000E+00 0. -1.
      -24    2    1    2    0    0  0.00000000000E+00  0.00000000000E+00  0.46046495081E+03  0.46769413447E+03  0.81913567178E+02 0.  0.
       11    1    3    3    0    0  0.36972436248E+02  0.13724252912E+02  0.16713114296E+03  0.17172109686E+03  0.00000000000E+00 0. -1.
      -12    1    3    3    0    0 -0.36972436248E+02 -0.13724252912E+02  0.29333380785E+03  0.29597303761E+03  0.00000000000E+00 0.  1.
</event>
<event>
 5   1  0.6181100E+00  0.8231694E+02  0.7957747E-01  0.1321453E+00
       -4   -1    0    0    0  501  0.00000000000E+00  0.00000000000E+00  0.13820352517E+02  0.13820352517E+02  0.00000000000E+00 0.  1.
        3   -1    0    0  501    0  0.00000000000E+00  0.00000000000E+00 -0.12257426011E+03  0.12257426011E+03  0.00000000000E+00 0. -1.
      -24    2    1    2    0    0  0.00000000000E+00  0.00000000000E+00 -0.10875390759E+03  0.13639461263E+03  0.82316935906E+02 0.  0.
       11    1    3    3    0    0  0.33121928912E+02  0.22625967301E+01 -0.14067266330E+02  0.36056476545E+02  0.00000000000E+00 0. -1.
      -12    1    3    3    0    0 -0.33121928912E+02 -0.22625967301E+01 -0.94686641261E+02  0.10033813608E+03  0.00000000000E+00 0.  1.
</event>
<event>
 6   2  0.6181100E+00  0.1307032E+03  0.7957747E-01  0.1229773E+00
       21   -1    0    0  501  502  0.00000000000E+00  0.00000000000E+00  0.11583255669E+04  0.11583255669E+04  0.00000000000E+00 0. -1.
       -4   -1    0    0    0  501  0.00000000000E+00  0.00000000000E+00 -0.14642399446E+02  0.14642399446E+02  0.00000000000E+00 0.  1.
      -24    2    1    2    0    0  0.43713269259E+01 -0.10487087495E+03  0.37442774542E+03  0.39658474058E+03  0.77886526519E+02 0.  0.
       11    1    3    3    0    0  0.29412248090E+02 -0.10090284024E+03  0.29155968961E+03  0.30992501691E+03  0.00000000000E+00 0. -1.
      -12    1    3    3    0    0 -0.25040921164E+02 -0.39680347058E+01  0.82868055814E+02  0.86659723670E+02  0.00000000000E+00 0.  1.
       -3    1    1    2    0  502 -0.43713269259E+01  0.10487087495E+03  0.76925542200E+03  0.77638322573E+03  0.00000000000E+00 0.  1.
</event>
<event>
 6   2  0.6181100E+00  0.9028511E+02  0.7957747E-01  0.1302055E+00
       -2   -1    0    0    0  501  0.00000000000E+00  0.00000000000E+00  0.29065671735E+03  0.29065671735E+03  0.00000000000E+00 0.  1.
       21   -1    0    0  501  502  0.00000000000E+00  0.00000000000E+00 -0.13837294188E+02  0.13837294188E+02  0.00000000000E+00 0. -1.
      -24    2    1    2    0    0 -0.26331008974E+02 -0.25262910564E+02  0.20138096096E+03  0.22069366390E+03  0.82582474940E+02 0.  0.
       11    1    3    3    0    0 -0.19221560015E+02 -0.47869184751E+02  0.68686530132E+02  0.85899747611E+02  0.00000000000E+00 0. -1.
      -12    1    3    3    0    0 -0.71094489597E+01  0.22606274188E+02  0.13269443083E+03  0.13479391629E+03  0.00000000000E+00 0.  1.
       -1    1    1    2    0  502  0.26331008974E+02  0.25262910564E+02  0.75438462203E+02  0.83800347633E+02  0.00000000000E+00 0.  1.
</event>
<event>
 6   2  0.6181100E+00  0.7823016E+02  0.7957747E-01  0.1332393E+00
       21   -1    0    0  501  502  0.00000000000E+00  0.00000000000E+00  0.42788517255E+02  0.42788517255E+02  0.00000000000E+00 0.  1.
        1   -1    0    0  502    0  0.00000000000E+00  0.00000000000E+00 -0.61901484701E+02  0.61901484701E+02  0.00000000000E+00 0. -1.
      -24    2    1    2    0    0 -0.20967041153E+02 -0.65103508333E+01 -0.24697911612E+02  0.82036236617E+02  0.75086322307E+02 0.  0.
       11    1    3    3    0    0  0.15626943253E+02 -0.27445907886E+01 -0.39357862282E+02  0.42435544741E+02  0.00000000000E+00 0. -1.
      -12    1    3    3    0    0 -0.36593984406E+02 -0.37657600447E+01  0.14659950670E+02  0.39600691876E+02  0.00000000000E+00 0.  1.
        2    1    1    2  501    0  0.20967041153E+02  0.65103508333E+01  0.55849441657E+01  0.22653765339E+02  0.00000000000E+00 0. -1.
</event>
<event>
 6   2  0.6181100E+00  0.7746662E+02  0.7957747E-01  0.1334521E+00
       -2   -1    0    0    0  501  0.00000000000E+00  0.00000000000E+00  0.48385324395E+02  0.48385324395E+02  0.00000000000E+00 0.  1.
        1   -1    0    0  502    0  0.00000000000E+00  0.00000000000E+00 -0.56004341647E+02  0.56004341647E+02  0.00000000000E+00 0. -1.
      -24    2    1    2    0    0  0.21679343905E+02 -0.10468938291E+02  0.41794555002E+01  0.77579284090E+02  0.73630733058E+02 0.  0.
       11    1    3    3    0    0  0.43630379932E+02 -0.25014486117E+02 -0.26924443435E+01  0.50364509580E+02  0.00000000000E+00 0. -1.
      -12    1    3    3    0    0 -0.21951036026E+02  0.14545547826E+02  0.68718998437E+01  0.27214774511E+02  0.00000000000E+00 0.  1.
       21    1    1    2  502  501 -0.21679343905E+02  0.10468938291E+02 -0.11798472752E+02  0.26810381951E+02  0.00000000000E+00 0. -1.
</event>
<event>
 5   1  0.6181100E+00  0.7974351E+02  0.7957747E-01  0.1328256E+00
       -2   -1    0    0    0  501  0.00000000000E+00  0.00000000000E+00  0.46434512118E+01  0.46434512118E+01  0.00000000000E+00 0.  1.
        1   -1    0    0  501    0  0.00000000000E+00  0.00000000000E+00 -0.34236533009E+03  0.34236533009E+03  0.00000000000E+00 0. -1.
      -24    2    1    2    0    0  0.00000000000E+00  0.00000000000E+00 -0.33772187887E+03  0.34700878130E+03  0.79743506490E+02 0.  0.
       11    1    3    3    0    0 -0.30922487947E+02  0.22886785767E+02 -0.21444891804E+03  0.21787231047E+03  0.00000000000E+00 0. -1.
      -12    1    3    3    0    0  0.30922487947E+02 -0.22886785767E+02 -0.12327296084E+03  0.12913647083E+03  0.00000000000E+00 0.  1.
</event>
<event>
 5   1  0.6181100E+00  0.8060240E+02  0.7957747E-01  0.1325954E+00
       -2   -1    0    0    0  501  0.00000000000E+00  0.00000000000E+00  0.70016202304E+02  0.70016202304E+02  0.00000000000E+00 0.  1.
        1   -1    0    0  501    0  0.00000000000E+00  0.00000000000E+00 -0.23197295464E+02  0.23197295464E+02  0.00000000000E+00 0. -1.
      -24    2    1    2    0    0  0.00000000000E+00  0.00000000000E+00  0.46818906840E+02  0.93213497768E+02  0.80602395302E+02 0.  0.
       11    1    3    3    0    0 -0.40268818691E+02 -0.10424992550E+01  0.21982749961E+02  0.45890149916E+02  0.00000000000E+00 0. -1.
      -12    1    3    3    0    0  0.40268818691E+02  0.10424992550E+01  0.24836156879E+02  0.47323347852E+02  0.00000000000E+00 0.  1.
</event>
<event>
 5   1  0.6181100E+00  0.7987334E+02  0.7957747E-01  0.1327906E+00
       -2   -1    0    0    0  501  0.00000000000E+00  0.00000000000E+00  0.78540175118E+02  0.78540175118E+02  0.00000000000E+00 0.  1.
        1   -1    0    0  501    0  0.00000000000E+00  0.00000000000E+00 -0.20307285688E+02  0.20307285688E+02  0.00000000000E+00 0. -1.
      -24    2    1    2    0    0  0.00000000000E+00  0.00000000000E+00  0.58232889430E+02  0.98847460806E+02  0.79873344092E+02 0.  0.
       11    1    3    3    0    0  0.95547910919E+01  0.20101827026E+02 -0.11920325637E+02  0.25248200845E+02  0.00000000000E+00 0. -1.
      -12    1    3    3    0    0 -0.95547910919E+01 -0.20101827026E+02  0.70153215067E+02  0.73599259961E+02  0.00000000000E+00 0.  1.
</event>
<event>
 5   1  0.6181100E+00  0.7347604E+02  0.7957747E-01  0.1346114E+00
        3   -1    0    0  501    0  0.00000000000E+00  0.00000000000E+00  0.22286527421E+02  0.22286527421E+02  0.00000000000E+00 0. -1.
       -4   -1    0    0    0  501  0.00000000000E+00  0.00000000000E+00 -0.60560451108E+02  0.60560451108E+02  0.00000000000E+00 0.  1.
      -24    2    1    2    0    0  0.00000000000E+00  0.00000000000E+00 -0.38273923687E+02  0.82846978529E+02  0.73476041108E+02 0.  0.
       11    1    3    3    0    0 -0.25245736942E+02 -0.22978041644E+01  0.10844826201E+02  0.27572402743E+02  0.00000000000E+00 0. -1.
      -12    1    3    3    0    0  0.25245736942E+02  0.22978041644E+01 -0.49118749888E+02  0.55274575786E+02  0.00000000000E+00 0.  1.
</event>
<event>
 4   3  0.6181100E+00  0.2901856E+03  0.7957747E-01  0.1098323E+00
       21   -1    0    0  501  502  0.00000000000E+00  0.00000000000E+00  0.40651102422E+03  0.40651102422E+03  0.00000000000E+00 0.  1.
       21   -1    0    0  502  503  0.00000000000E+00  0.00000000000E+00 -0.48664397379E+03  0.48664397379E+03  0.00000000000E+00 0.  1.
        6    1    1    2  501    0 -0.22479511301E+02  0.23189080235E+03  0.29837179189E+03  0.41621316514E+03  0.17300000000E+03 0.  1.
       -6    1    1    2    0  503  0.22479511301E+02 -0.23189080235E+03 -0.37850474145E+03  0.47694183287E+03  0.17300000000E+03 0.  1.
</event>
<event>
 5   1  0.6181100E+00  0.8309051E+02  0.7957747E-01  0.1319463E+00
        3   -1    0    0  501    0  0.00000000000E+00  0.00000000000E+00  0.18713229046E+01  0.18713229046E+01  0.00000000000E+00 0. -1.
       -4   -1    0    0    0  501  0.00000000000E+00  0.00000000000E+00 -0.92234665047E+03  0.92234665047E+03  0.00000000000E+00 0.  1.
      -24    2    1    2    0    0  0.00000000000E+00  0.00000000000E+00 -0.92047532756E+03  0.92421797337E+03  0.83090514814E+02 0.  0.
       11    1    3    3    0    0 -0.31035939724E+02 -0.69975667285E+01 -0.16306068584E+03  0.16613543499E+03  0.00000000000E+00 0. -1.
      -12    1    3    3    0    0  0.31035939724E+02  0.69975667285E+01 -0.75741464172E+03  0.75808253838E+03  0.00000000000E+00 0.  1.
</event>
<event>
 5   1  0.6181100E+00  0.8329401E+02  0.7957747E-01  0.1318944E+00
        1   -1    0    0  501    0  0.00000000000E+00  0.00000000000E+00  0.49292894116E+01  0.49292894116E+01  0.00000000000E+00 0. -1.
       -2   -1    0    0    0  501  0.00000000000E+00  0.00000000000E+00 -0.35187079330E+03  0.35187079330E+03  0.00000000000E+00 0.  1.
      -24    2    1    2    0    0  0.00000000000E+00  0.00000000000E+00 -0.34694150389E+03  0.35680008272E+03  0.83294008805E+02 0.  0.
       11    1    3    3    0    0  0.39725410308E+02  0.36334421165E+01 -0.12221691893E+03  0.12856237941E+03  0.00000000000E+00 0. -1.
      -12    1    3    3    0    0 -0.39725410308E+02 -0.36334421165E+01 -0.22472458496E+03  0.22823770331E+03  0.00000000000E+00 0.  1.
</event>
<event>
 5   1  0.6181100E+00  0.7862916E+02  0.7957747E-01  0.1331292E+00
        1   -1    0    0  501    0  0.00000000000E+00  0.00000000000E+00  0.19198206393E+03  0.19198206393E+03  0.00000000000E+00 0. -1.
       -2   -1    0    0    0  501  0.00000000000E+00  0.00000000000E+00 -0.80509397225E+01  0.80509397225E+01  0.00000000000E+00 0.  1.
      -24    2    1    2    0    0  0.00000000000E+00  0.00000000000E+00  0.18393112421E+03  0.20003300365E+03  0.78629155521E+02 0.  0.
       11    1    3    3    0    0 -0.32495129768E+02 -0.15246776258E+02  0.51163141581E+02  0.62498517593E+02  0.00000000000E+00 0. -1.
      -12    1    3    3    0    0  0.32495129768E+02  0.15246776258E+02  0.13276798263E+03  0.13753448606E+03  0.00000000000E+00 0.  1.
</event>
<event>
 5   1  0.6181100E+00  0.9626021E+02  0.7957747E-01  0.1288932E+00
       -2   -1    0    0    0  501  0.00000000000E+00  0.00000000000E+00  0.13249180661E+02  0.13249180661E+02  0.00000000000E+00 0.  1.
        1   -1    0    0  501    0  0.00000000000E+00  0.00000000000E+00 -0.17484152631E+03  0.17484152631E+03  0.00000000000E+00 0. -1.
      -24    2    1    2    0    0  0.00000000000E+00  0.00000000000E+00 -0.16159234565E+03  0.18809070697E+03  0.96260209205E+02 0.  0.
       11    1    3    3    0    0  0.93950176928E+01  0.41709902647E+02 -0.12398424029E+03  0.13114905328E+03  0.00000000000E+00 0. -1.
      -12    1    3    3    0    0 -0.93950176928E+01 -0.41709902647E+02 -0.37608105362E+02  0.56941653692E+02  0.00000000000E+00 0.  1.
</event>
<event>
 5   1  0.6181100E+00  0.7668266E+02  0.7957747E-01  0.1336735E+00
       -2   -1    0    0    0  501  0.00000000000E+00  0.00000000000E+00  0.14588662714E+03  0.14588662714E+03  0.00000000000E+00 0.  1.
        1   -1    0    0  501    0  0.00000000000E+00  0.00000000000E+00 -0.10076711707E+02  0.10076711707E+02  0.00000000000E+00 0. -1.
      -24    2    1    2    0    0  0.00000000000E+00  0.00000000000E+00  0.13580991543E+03  0.15596333884E+03  0.76682657324E+02 0.  0.
       11    1    3    3    0    0 -0.20285005669E+02 -0.68632218152E+01  0.32201415452E+01  0.21655359157E+02  0.00000000000E+00 0. -1.
      -12    1    3    3    0    0  0.20285005669E+02  0.68632218152E+01  0.13258977388E+03  0.13430797969E+03  0.00000000000E+00 0.  1.
</event>
<event>
 5   1  0.6181100E+00  0.8158867E+02  0.7957747E-01  0.1323350E+00
        1   -1    0    0  501    0  0.00000000000E+00  0.00000000000E+00  0.53692279802E+02  0.53692279802E+02  0.00000000000E+00 0. -1.
       -2   -1    0    0    0  501  0.00000000000E+00  0.00000000000E+00 -0.30994729718E+02  0.30994729718E+02  0.00000000000E+00 0.  1.
      -24    2    1    2    0    0  0.00000000000E+00  0.00000000000E+00  0.22697550084E+02  0.84687009521E+02  0.81588668342E+02 0.  0.
       11    1    3    3    0    0  0.27853717957E+02  0.25396949509E+02  0.27540623398E+02  0.46683193824E+02  0.00000000000E+00 0. -1.
      -12    1    3    3    0    0 -0.27853717957E+02 -0.25396949509E+02 -0.48430733145E+01  0.38003815697E+02  0.00000000000E+00 0.  1.
</event>
<event>
 5   1  0.6181100E+00  0.8032637E+02  0.7957747E-01  0.1326690E+00
        3   -1    0    0  501    0  0.00000000000E+00  0.00000000000E+00  0.57136145162E+02  0.57136145162E+02  0.00000000000E+00 0. -1.
       -4   -1    0    0    0  501  0.00000000000E+00  0.00000000000E+00 -0.28232241729E+02  0.28232241729E+02  0.00000000000E+00 0.  1.
      -24    2    1    2    0    0  0.00000000000E+00  0.00000000000E+00  0.28903903434E+02  0.85368386891E+02  0.80326370804E+02 0.  0.
       11    1    3    3    0    0 -0.95476085946E+01  0.37364775328E+02  0.26371948463E+02  0.46720048490E+02  0.00000000000E+00 0. -1.
      -12    1    3    3    0    0  0.95476085946E+01 -0.37364775328E+02  0.25319549710E+01  0.38648338401E+02  0.00000000000E+00 0.  1.
</event>
<event>
 5   1  0.6181100E+00  0.8470440E+02  0.7957747E-01  0.1315389E+00
       -2   -1    0    0    0  501  0.00000000000E+00  0.00000000000E+00  0.46863914491E+01  0.46863914491E+01  0.00000000000E+00 0.  1.
        1   -1    0    0  501    0  0.00000000000E+00  0.00000000000E+00 -0.38274837129E+03  0.38274837129E+03  0.00000000000E+00 0. -1.
      -24    2    1    2    0    0  0.00000000000E+00  0.00000000000E+00 -0.37806197985E+03  0.38743476274E+03  0.84704396447E+02 0.  0.
       11    1    3    3    0    0 -0.27054623025E+02  0.31201425545E+02 -0.14606808254E+03  0.15179382833E+03  0.00000000000E+00 0. -1.
      -12    1    3    3    0    0  0.27054623025E+02 -0.31201425545E+02 -0.23199389730E+03  0.23564093441E+03  0.00000000000E+00 0.  1.
</event>
<event>
 6   2  0.6181100E+00  0.8223363E+02  0.7957747E-01  0.1321669E+00
        1   -1    0    0  502    0  0.00000000000E+00  0.00000000000E+00  0.11477161176E+02  0.11477161176E+02  0.00000000000E+00 0. -1.
       -2   -1    0    0    0  501  0.00000000000E+00  0.00000000000E+00 -0.24395419003E+03  0.24395419003E+03  0.00000000000E+00 0.  1.
      -24    2    1    2    0    0  0.11435361529E+02  0.17398983806E+02 -0.15826606061E+03  0.17835502580E+03  0.79554240336E+02 0.  0.
       11    1    3    3    0    0 -0.95773604289E+01  0.35570094106E+02 -0.31159148292E+02  0.48247797357E+02  0.00000000000E+00 0. -1.
      -12    1    3    3    0    0  0.21012721958E+02 -0.18171110300E+02 -0.12710691232E+03  0.13010722844E+03  0.00000000000E+00 0.  1.
       21    1    1    2  502  501 -0.11435361529E+02 -0.17398983806E+02 -0.74210968243E+02  0.77076325408E+02  0.00000000000E+00 0.  1.
</event>
<event>
 5   1  0.6181100E+00  0.8009231E+02  0.7957747E-01  0.1327317E+00
        1   -1    0    0  501    0  0.00000000000E+00  0.00000000000E+00  0.68735166816E+03  0.68735166816E+03  0.00000000000E+00 0. -1.
       -2   -1    0    0    0  501  0.00000000000E+00  0.00000000000E+00 -0.23331500477E+01  0.23331500477E+01  0.00000000000E+00 0.  1.
      -24    2    1    2    0    0  0.00000000000E+00  0.00000000000E+00  0.68501851811E+03  0.68968481821E+03  0.80092311175E+02 0.  0.
       11    1    3    3    0    0 -0.25568363817E+02 -0.12247682564E+02  0.98957867301E+02  0.10293884814E+03  0.00000000000E+00 0. -1.
      -12    1    3    3    0    0  0.25568363817E+02  0.12247682564E+02  0.58606065081E+03  0.58674597007E+03  0.00000000000E+00 0.  1.
</event>
<event>
 6   2  0.6181100E+00  0.1051247E+03  0.7957747E-01  0.1271319E+00
       -2   -1    0    0    0  501  0.00000000000E+00  0.00000000000E+00  0.13668052404E+02  0.13668052404E+02  0.00000000000E+00 0.  1.
       21   -1    0    0  501  502  0.00000000000E+00  0.00000000000E+00 -0.71576488573E+03  0.71576488573E+03  0.00000000000E+00 0.  1.
      -24    2    1    2    0    0 -0.42423669991E+02 -0.54896696499E+02 -0.23805450141E+03  0.26023287327E+03  0.78979665898E+02 0.  0.
       11    1    3    3    0    0  0.99922841401E+01  0.14111449373E+02 -0.26782452721E+02  0.31879123568E+02  0.00000000000E+00 0. -1.
      -12    1    3    3    0    0 -0.52415954131E+02 -0.69008145872E+02 -0.21127204869E+03  0.22835374970E+03  0.00000000000E+00 0.  1.
       -1    1    1    2    0  502  0.42423669991E+02  0.54896696499E+02 -0.46404233191E+03  0.46920006486E+03  0.00000000000E+00 0.  1.
</event>
<event>
 5   1  0.6181100E+00  0.7985092E+02  0.7957747E-01  0.1327966E+00
        1   -1    0    0  501    0  0.00000000000E+00  0.00000000000E+00  0.84375640648E+01  0.84375640648E+01  0.00000000000E+00 0. -1.
       -2   -1    0    0    0  501  0.00000000000E+00  0.00000000000E+00 -0.18892208092E+03  0.18892208092E+03  0.00000000000E+00 0.  1.
      -24    2    1    2    0    0  0.00000000000E+00  0.00000000000E+00 -0.18048451685E+03  0.19735964498E+03  0.79850915111E+02 0.  0.
       11    1    3    3    0    0 -0.35372464579E+00 -0.38654781525E+02 -0.65560262655E+02  0.76108247223E+02  0.00000000000E+00 0. -1.
      -12    1    3    3    0    0  0.35372464579E+00  0.38654781525E+02 -0.11492425420E+03  0.12125139776E+03  0.00000000000E+00 0.  1.
</event>
<event>
 5   1  0.6181100E+00  0.8012064E+02  0.7957747E-01  0.1327241E+00
       -2   -1    0    0    0  501  0.00000000000E+00  0.00000000000E+00  0.86740829224E+01  0.86740829224E+01  0.00000000000E+00 0.  1.
        1   -1    0    0  501    0  0.00000000000E+00  0.00000000000E+00 -0.18501429968E+03  0.18501429968E+03  0.00000000000E+00 0. -1.
      -24    2    1    2    0    0  0.00000000000E+00  0.00000000000E+00 -0.17634021676E+03  0.19368838260E+03  0.80120643463E+02 0.  0.
       11    1    3    3    0    0 -0.31216467759E+02  0.24713844696E+02 -0.98869215125E+02  0.10658500682E+03  0.00000000000E+00 0. -1.
      -12    1    3    3    0    0  0.31216467759E+02 -0.24713844696E+02 -0.77471001632E+02  0.87103375783E+02  0.00000000000E+00 0.  1.
</event>
<event>
 6   2  0.6181100E+00  0.8541323E+02  0.7957747E-01  0.1313632E+00
        1   -1    0    0  502    0  0.00000000000E+00  0.00000000000E+00  0.24807010032E+03  0.24807010032E+03  0.00000000000E+00 0. -1.
       21   -1    0    0  501  502  0.00000000000E+00  0.00000000000E+00 -0.22238069026E+02  0.22238069026E+02  0.00000000000E+00 0. -1.
      -24    2    1    2    0    0  0.34102363500E+02 -0.42307788429E+01  0.69132805233E+02  0.10988523416E+03  0.78195583257E+02 0.  0.
       11    1    3    3    0    0  0.10929561573E+01 -0.19353604579E+02 -0.10730104500E+02  0.22156076050E+02  0.00000000000E+00 0. -1.
      -12    1    3    3    0    0  0.33009407343E+02  0.15122825736E+02  0.79862909733E+02  0.87729158109E+02  0.00000000000E+00 0.  1.
        2    1    1    2  501    0 -0.34102363500E+02  0.42307788429E+01  0.15669922606E+03  0.16042293519E+03  0.00000000000E+00 0. -1.
</event>
<event>
 5   1  0.6181100E+00  0.8242351E+02  0.7957747E-01  0.1321178E+00
       -4   -1    0    0    0  501  0.00000000000E+00  0.00000000000E+00  0.85397134268E+01  0.85397134268E+01  0.00000000000E+00 0.  1.
        3   -1    0    0  501    0  0.00000000000E+00  0.00000000000E+00 -0.19888355716E+03  0.19888355716E+03  0.00000000000E+00 0. -1.
      -24    2    1    2    0    0  0.00000000000E+00  0.00000000000E+00 -0.19034384373E+03  0.20742327058E+03  0.82423505953E+02 0.  0.
       11    1    3    3    0    0 -0.40973133279E+02  0.20086059357E+01 -0.10510400683E+03  0.11282590306E+03  0.00000000000E+00 0. -1.
      -12    1    3    3    0    0  0.40973133279E+02 -0.20086059357E+01 -0.85239836896E+02  0.94597367524E+02  0.00000000000E+00 0.  1.
</event>
<event>
 6   2  0.6181100E+00  0.8648614E+02  0.7957747E-01  0.1311009E+00
       -2   -1    0    0    0  501  0.00000000000E+00  0.00000000000E+00  0.54606246370E+02  0.54606246370E+02  0.00000000000E+00 0.  1.
       21   -1    0    0  501  502  0.00000000000E+00  0.00000000000E+00 -0.11652975855E+03  0.11652975855E+03  0.00000000000E+00 0.  1.
      -24    2    1    2    0    0  0.13879090121E+02  0.20819257428E+02  0.17174371096E+02  0.88174894988E+02  0.82787574316E+02 0.  0.
       11    1    3    3    0    0 -0.18502259878E+02  0.37435731690E+02 -0.97755498363E+01  0.42887399109E+02  0.00000000000E+00 0. -1.
      -12    1    3    3    0    0  0.32381349999E+02 -0.16616474262E+02  0.26949920933E+02  0.45287495878E+02  0.00000000000E+00 0.  1.
       -1    1    1    2    0  502 -0.13879090121E+02 -0.20819257428E+02 -0.79097883276E+02  0.82961109932E+02  0.00000000000E+00 0.  1.
</event>
<event>
 5   1  0.6181100E+00  0.7799198E+02  0.7957747E-01  0.1333054E+00
       -4   -1    0    0    0  501  0.00000000000E+00  0.00000000000E+00  0.39962859551E+02  0.39962859551E+02  0.00000000000E+00 0.  1.
        3   -1    0    0  501    0  0.00000000000E+00  0.00000000000E+00 -0.38052515361E+02  0.38052515361E+02  0.00000000000E+00 0. -1.
      -24    2    1    2    0    0  0.00000000000E+00  0.00000000000E+00  0.19103441895E+01  0.78015374912E+02  0.77991982329E+02 0.  0.
       11    1    3    3    0    0 -0.23055044442E+02  0.31429675963E+02 -0.19744151667E+00  0.38979463677E+02  0.00000000000E+00 0. -1.
      -12    1    3    3    0    0  0.23055044442E+02 -0.31429675963E+02  0.21077857062E+01  0.39035911235E+02  0.00000000000E+00 0.  1.
</event>
<event>
 6   2  0.6181100E+00  0.8480903E+02  0.7957747E-01  0.1315129E+00
       21   -1    0    0  501  502  0.00000000000E+00  0.00000000000E+00  0.81639227857E+02  0.81639227857E+02  0.00000000000E+00 0. -1.
       -2   -1    0    0    0  501  0.00000000000E+00  0.00000000000E+00 -0.45601655100E+02  0.45601655100E+02  0.00000000000E+00 0.  1.
      -24    2    1    2    0    0  0.90711821310E+01 -0.26357561594E+02  0.47380308005E+02  0.97146613712E+02  0.80097213251E+02 0.  0.
       11    1    3    3    0    0  0.23858734816E+02 -0.37729386812E+02  0.59882261701E+02  0.74690234453E+02  0.00000000000E+00 0. -1.
      -12    1    3    3    0    0 -0.14787552685E+02  0.11371825218E+02 -0.12501953696E+02  0.22456379259E+02  0.00000000000E+00 0.  1.
       -1    1    1    2    0  502 -0.90711821310E+01  0.26357561594E+02 -0.11342735248E+02  0.30094269244E+02  0.00000000000E+00 0.  1.
</event>
<event>
 5   1  0.6181100E+00  0.8698791E+02  0.7957747E-01  0.1309797E+00
        1   -1    0    0  501    0  0.00000000000E+00  0.00000000000E+00  0.24612437607E+03  0.24612437607E+03  0.00000000000E+00 0. -1.
       -2   -1    0    0    0  501  0.00000000000E+00  0.00000000000E+00 -0.76860489962E+01  0.76860489962E+01  0.00000000000E+00 0.  1.
      -24    2    1    2    0    0  0.00000000000E+00  0.00000000000E+00  0.23843832707E+03  0.25381042506E+03  0.86987907519E+02 0.  0.
       11    1    3    3    0    0  0.27290138798E+02 -0.20401957573E+02  0.19809242030E+03  0.20100148888E+03  0.00000000000E+00 0. -1.
      -12    1    3    3    0    0 -0.27290138798E+02  0.20401957573E+02  0.40345906768E+02  0.52808936188E+02  0.00000000000E+00 0.  1.
</event>
<event>
 5   1  0.6181100E+00  0.8047478E+02  0.7957747E-01  0.1326294E+00
        1   -1    0    0  501    0  0.00000000000E+00  0.00000000000E+00  0.69571797037E+01  0.69571797037E+01  0.00000000000E+00 0. -1.
       -2   -1    0    0    0  501  0.00000000000E+00  0.00000000000E+00 -0.23271606007E+03  0.23271606007E+03  0.00000000000E+00 0.  1.
      -24    2    1    2    0    0  0.00000000000E+00  0.00000000000E+00 -0.22575888037E+03  0.23967323977E+03  0.80474777411E+02 0.  0.
       11    1    3    3    0    0 -0.15880217249E+02  0.61313724069E+01 -0.42952092446E+01  0.17556305133E+02  0.00000000000E+00 0. -1.
      -12    1    3    3    0    0  0.15880217249E+02 -0.61313724069E+01 -0.22146367112E+03  0.22211693464E+03  0.00000000000E+00 0.  1.
</event>
<event>
 5   1  0.6181100E+00  0.8431085E+02  0.7957747E-01  0.1316373E+00
       -4   -1    0    0    0  501  0.00000000000E+00  0.00000000000E+00  0.33384736249E+03  0.33384736249E+03  0.00000000000E+00 0.  1.
        3   -1    0    0  501    0  0.00000000000E+00  0.00000000000E+00 -0.53230312792E+01  0.53230312792E+01  0.00000000000E+00 0. -1.
      -24    2    1    2    0    0  0.00000000000E+00  0.00000000000E+00  0.32852433121E+03  0.33917039377E+03  0.84310852280E+02 0.  0.
       11    1    3    3    0    0  0.17550945233E+02  0.14543348615E+02  0.21604686271E+02  0.31405527162E+02  0.00000000000E+00 0. -1.
      -12    1    3    3    0    0 -0.17550945233E+02 -0.14543348615E+02  0.30691964494E+03  0.30776486661E+03  0.00000000000E+00 0.  1.
</event>
<event>
 5   1  0.6181100E+00  0.9501206E+02  0.7957747E-01  0.1291584E+00
       -2   -1    0    0    0  501  0.00000000000E+00  0.00000000000E+00  0.44421721598E+02  0.44421721598E+02  0.00000000000E+00 0.  1.
        1   -1    0    0  501    0  0.00000000000E+00  0.00000000000E+00 -0.50804487035E+02  0.50804487035E+02  0.00000000000E+00 0. -1.
      -24    2    1    2    0    0  0.00000000000E+00  0.00000000000E+00 -0.63827654372E+01  0.95226208633E+02  0.95012057740E+02 0.  0.
       11    1    3    3    0    0 -0.15569726469E+02 -0.43741690045E+02 -0.13267447260E+02  0.48288476752E+02  0.00000000000E+00 0. -1.
      -12    1    3    3    0    0  0.15569726469E+02  0.43741690045E+02  0.68846818225E+01  0.46937731880E+02  0.00000000000E+00 0.  1.
</event>
<event>
 5   1  0.6181100E+00  0.8052067E+02  0.7957747E-01  0.1326171E+00
       -4   -1    0    0    0  501  0.00000000000E+00  0.00000000000E+00  0.69948173686E+02  0.69948173686E+02  0.00000000000E+00 0.  1.
        3   -1    0    0  501    0  0.00000000000E+00  0.00000000000E+00 -0.23172791570E+02  0.23172791570E+02  0.00000000000E+00 0. -1.
      -24    2    1    2    0    0  0.00000000000E+00  0.00000000000E+00  0.46775382115E+02  0.93120965256E+02  0.80520666901E+02 0.  0.
       11    1    3    3    0    0  0.40077050195E+02 -0.37074673585E-01  0.27825208478E+02  0.48789481999E+02  0.00000000000E+00 0. -1.
      -12    1    3    3    0    0 -0.40077050195E+02  0.37074673585E-01  0.18950173637E+02  0.44331483257E+02  0.00000000000E+00 0.  1.
</event>
<event>
 5   1  0.6181100E+00  0.8104942E+02  0.7957747E-01  0.1324768E+00
       -4   -1    0    0    0  501  0.00000000000E+00  0.00000000000E+00  0.11212971625E+03  0.11212971625E+03  0.00000000000E+00 0.  1.
        3   -1    0    0  501    0  0.00000000000E+00  0.00000000000E+00 -0.14646001721E+02  0.14646001721E+02  0.00000000000E+00 0. -1.
      -24    2    1    2    0    0  0.00000000000E+00  0.00000000000E+00  0.97483714530E+02  0.12677571797E+03  0.81049417447E+02 0.  0.
       11    1    3    3    0    0 -0.68704364614E+01 -0.14094212974E+02 -0.97090768160E+01  0.18442231675E+02  0.00000000000E+00 0. -1.
      -12    1    3    3    0    0  0.68704364614E+01  0.14094212974E+02  0.10719279135E+03  0.10833348630E+03  0.00000000000E+00 0.  1.
</event>
<event>
 6   2  0.6181100E+00  0.8182893E+02  0.7957747E-01  0.1322722E+00
       21   -1    0    0  501  502  0.00000000000E+00  0.00000000000E+00  0.28379548212E+03  0.28379548212E+03  0.00000000000E+00 0. -1.
        1   -1    0    0  502    0  0.00000000000E+00  0.00000000000E+00 -0.14549991413E+02  0.14549991413E+02  0.00000000000E+00 0. -1.
      -24    2    1    2    0    0 -0.11434271734E+02 -0.17415661046E+02  0.10667397320E+03  0.13444444814E+03  0.79132327517E+02 0.  0.
       11    1    3    3    0    0  0.31936611294E+02 -0.72730914565E+01  0.24245504932E+02  0.40751558371E+02  0.00000000000E+00 0. -1.
      -12    1    3    3    0    0 -0.43370883029E+02 -0.10142569590E+02  0.82428468266E+02  0.93692889769E+02  0.00000000000E+00 0.  1.
        2    1    1    2  501    0  0.11434271734E+02  0.17415661046E+02  0.16257151750E+03  0.16390102539E+03  0.00000000000E+00 0. -1.
</event>
<event>
 5   1  0.6181100E+00  0.7905912E+02  0.7957747E-01  0.1330114E+00
       -2   -1    0    0    0  501  0.00000000000E+00  0.00000000000E+00  0.10685808446E+03  0.10685808446E+03  0.00000000000E+00 0.  1.
        1   -1    0    0  501    0  0.00000000000E+00  0.00000000000E+00 -0.14623003084E+02  0.14623003084E+02  0.00000000000E+00 0. -1.
      -24    2    1    2    0    0  0.00000000000E+00  0.00000000000E+00  0.92235081376E+02  0.12148108754E+03  0.79059119616E+02 0.  0.
       11    1    3    3    0    0 -0.23507351787E+02  0.30347002503E+01 -0.24925292565E+01  0.23833121822E+02  0.00000000000E+00 0. -1.
      -12    1    3    3    0    0  0.23507351787E+02 -0.30347002503E+01  0.94727610633E+02  0.97647965723E+02  0.00000000000E+00 0.  1.
</event>
<event>
 5   1  0.6181100E+00  0.7933953E+02  0.7957747E-01  0.1329350E+00
        1   -1    0    0  501    0  0.00000000000E+00  0.00000000000E+00  0.85454215015E+01  0.85454215015E+01  0.00000000000E+00 0. -1.
       -2   -1    0    0    0  501  0.00000000000E+00  0.00000000000E+00 -0.18415595701E+03  0.18415595701E+03  0.00000000000E+00 0.  1.
      -24    2    1    2    0    0  0.00000000000E+00  0.00000000000E+00 -0.17561053551E+03  0.19270137851E+03  0.79339530493E+02 0.  0.
       11    1    3    3    0    0  0.59634213226E+00  0.18302147377E+02 -0.23340848949E+01  0.18460015570E+02  0.00000000000E+00 0. -1.
      -12    1    3    3    0    0 -0.59634213226E+00 -0.18302147377E+02 -0.17327645062E+03  0.17424136295E+03  0.00000000000E+00 0.  1.
</event>
<event>
 5   1  0.6181100E+00  0.7976774E+02  0.7957747E-01  0.1328190E+00
        3   -1    0    0  501    0  0.00000000000E+00  0.00000000000E+00  0.11340779290E+02  0.11340779290E+02  0.00000000000E+00 0. -1.
       -4   -1    0    0    0  501  0.00000000000E+00  0.00000000000E+00 -0.14026577726E+03  0.14026577726E+03  0.00000000000E+00 0.  1.
      -24    2    1    2    0    0  0.00000000000E+00  0.00000000000E+00 -0.12892499797E+03  0.15160655655E+03  0.79767743402E+02 0.  0.
       11    1    3    3    0    0 -0.14885782569E+01 -0.35580076912E+02 -0.30327521227E+02  0.46775167366E+02  0.00000000000E+00 0. -1.
      -12    1    3    3    0    0  0.14885782569E+01  0.35580076912E+02 -0.98597476744E+02  0.10483138919E+03  0.00000000000E+00 0.  1.
</event>
<event>
 5   1  0.6181100E+00  0.8023153E+02  0.7957747E-01  0.1326944E+00
        1   -1    0    0  501    0  0.00000000000E+00  0.00000000000E+00  0.78829629184E+02  0.78829629184E+02  0.00000000000E+00 0. -1.
       -2   -1    0    0    0  501  0.00000000000E+00  0.00000000000E+00 -0.20414590282E+02  0.20414590282E+02  0.00000000000E+00 0.  1.
      -24    2    1    2    0    0  0.00000000000E+00  0.00000000000E+00  0.58415038902E+02  0.99244219466E+02  0.80231529509E+02 0.  0.
       11    1    3    3    0    0 -0.43786573951E+01  0.32250118232E+02  0.58217941991E+02  0.66697612673E+02  0.00000000000E+00 0. -1.
      -12    1    3    3    0    0  0.43786573951E+01 -0.32250118232E+02  0.19709691156E+00  0.32546606793E+02  0.00000000000E+00 0.  1.
</event>
<event>
 5   1  0.6181100E+00  0.7950314E+02  0.7957747E-01  0.1328906E+00
        3   -1    0    0  501    0  0.00000000000E+00  0.00000000000E+00  0.70893147077E+02  0.70893147077E+02  0.00000000000E+00 0. -1.
       -4   -1    0    0    0  501  0.00000000000E+00  0.00000000000E+00 -0.22289705964E+02  0.22289705964E+02  0.00000000000E+00 0.  1.
      -24    2    1    2    0    0  0.00000000000E+00  0.00000000000E+00  0.48603441113E+02  0.93182853042E+02  0.79503142158E+02 0.  0.
       11    1    3    3    0    0 -0.15948211431E+02  0.26640845572E+00  0.66977942451E+02  0.68851007227E+02  0.00000000000E+00 0. -1.
      -12    1    3    3    0    0  0.15948211431E+02 -0.26640845572E+00 -0.18374501338E+02  0.24331845814E+02  0.00000000000E+00 0.  1.
</event>
<event>
 6   2  0.6181100E+00  0.8325227E+02  0.7957747E-01  0.1319050E+00
       21   -1    0    0  501  502  0.00000000000E+00  0.00000000000E+00  0.10382483241E+02  0.10382483241E+02  0.00000000000E+00 0.  1.
        1   -1    0    0  502    0  0.00000000000E+00  0.00000000000E+00 -0.48191461454E+03  0.48191461454E+03  0.00000000000E+00 0. -1.
      -24    2    1    2    0    0  0.75914088777E+01  0.24780425922E+02 -0.16638003658E+03  0.18604638365E+03  0.79115367012E+02 0.  0.
       11    1    3    3    0    0 -0.22241111984E+02 -0.18677160368E+02 -0.43126145384E+02  0.51993920773E+02  0.00000000000E+00 0. -1.
      -12    1    3    3    0    0  0.29832520861E+02  0.43457586290E+02 -0.12325389120E+03  0.13405246287E+03  0.00000000000E+00 0.  1.
        2    1    1    2  501    0 -0.75914088777E+01 -0.24780425922E+02 -0.30515209471E+03  0.30625071413E+03  0.00000000000E+00 0. -1.
</event>
<event>
 4   3  0.6181100E+00  0.1865541E+03  0.7957747E-01  0.1167445E+00
       21   -1    0    0  501  502  0.00000000000E+00  0.00000000000E+00  0.10330292648E+04  0.10330292648E+04  0.00000000000E+00 0. -1.
       21   -1    0    0  502  503  0.00000000000E+00  0.00000000000E+00 -0.38357396301E+02  0.38357396301E+02  0.00000000000E+00 0. -1.
        6    1    1    2  501    0  0.69603590489E+02 -0.53650581237E+01  0.68420743866E+03  0.70918422344E+03  0.17300000000E+03 0. -1.
       -6    1    1    2    0  503 -0.69603590489E+02  0.53650581237E+01  0.31046442989E+03  0.36220243771E+03  0.17300000000E+03 0. -1.
</event>
<event>
 5   1  0.6181100E+00  0.8266412E+02  0.7957747E-01  0.1320557E+00
        1   -1    0    0  501    0  0.00000000000E+00  0.00000000000E+00  0.24248439450E+03  0.24248439450E+03  0.00000000000E+00 0. -1.
       -2   -1    0    0    0  501  0.00000000000E+00  0.00000000000E+00 -0.70451507390E+01  0.70451507390E+01  0.00000000000E+00 0.  1.
      -24    2    1    2    0    0  0.00000000000E+00  0.00000000000E+00  0.23543924376E+03  0.24952954523E+03  0.82664118240E+02 0.  0.
       11    1    3    3    0    0  0.23493197436E+00 -0.37889961266E+02  0.67877612197E+02  0.77737214996E+02  0.00000000000E+00 0. -1.
      -12    1    3    3    0    0 -0.23493197436E+00  0.37889961266E+02  0.16756163156E+03  0.17179233024E+03  0.00000000000E+00 0.  1.
</event>
<event>
 5   1  0.6181100E+00  0.8042945E+02  0.7957747E-01  0.1326414E+00
        1   -1    0    0  501    0  0.00000000000E+00  0.00000000000E+00  0.68673349032E+01  0.68673349032E+01  0.00000000000E+00 0. -1.
       -2   -1    0    0    0  501  0.00000000000E+00  0.00000000000E+00 -0.23549515107E+03  0.23549515107E+03  0.00000000000E+00 0.  1.
      -24    2    1    2    0    0  0.00000000000E+00  0.00000000000E+00 -0.22862781616E+03  0.24236248597E+03  0.80429449095E+02 0.  0.
       11    1    3    3    0    0 -0.15289740602E+02  0.66484031897E+01 -0.40380141776E+01  0.17154678404E+02  0.00000000000E+00 0. -1.
      -12    1    3    3    0    0  0.15289740602E+02 -0.66484031897E+01 -0.22458980198E+03  0.22520780756E+03  0.00000000000E+00 0.  1.
</event>
<event>
 5   1  0.6181100E+00  0.8014416E+02  0.7957747E-01  0.1327178E+00
       -2   -1    0    0    0  501  0.00000000000E+00  0.00000000000E+00  0.49557653867E+02  0.49557653867E+02  0.00000000000E+00 0.  1.
        1   -1    0    0  501    0  0.00000000000E+00  0.00000000000E+00 -0.32402088027E+02  0.32402088027E+02  0.00000000000E+00 0. -1.
      -24    2    1    2    0    0  0.00000000000E+00  0.00000000000E+00  0.17155565841E+02  0.81959741894E+02  0.80144156693E+02 0.  0.
       11    1    3    3    0    0  0.12759195335E+02  0.37503772935E+02  0.24043558336E+01  0.39687667819E+02  0.00000000000E+00 0. -1.
      -12    1    3    3    0    0 -0.12759195335E+02 -0.37503772935E+02  0.14751210007E+02  0.42272074075E+02  0.00000000000E+00 0.  1.
</event>
<event>
 5   1  0.6181100E+00  0.8023056E+02  0.7957747E-01  0.1326946E+00
       -4   -1    0    0    0  501  0.00000000000E+00  0.00000000000E+00  0.11139512727E+02  0.11139512727E+02  0.00000000000E+00 0.  1.
        3   -1    0    0  501    0  0.00000000000E+00  0.00000000000E+00 -0.14446194987E+03  0.14446194987E+03  0.00000000000E+00 0. -1.
      -24    2    1    2    0    0  0.00000000000E+00  0.00000000000E+00 -0.13332243714E+03  0.15560146259E+03  0.80230560989E+02 0.  0.
       11    1    3    3    0    0  0.13091674130E+02 -0.34759198288E+02 -0.96051208816E+02  0.10298266122E+03  0.00000000000E+00 0. -1.
      -12    1    3    3    0    0 -0.13091674130E+02  0.34759198288E+02 -0.37271228324E+02  0.52618801373E+02  0.00000000000E+00 0.  1.
</event>
<event>
 5   1  0.6181100E+00  0.8847811E+02  0.7957747E-01  0.1306251E+00
       -4   -1    0    0    0  501  0.00000000000E+00  0.00000000000E+00  0.99641408158E+02  0.99641408158E+02  0.00000000000E+00 0.  1.
        3   -1    0    0  501    0  0.00000000000E+00  0.00000000000E+00 -0.19641371207E+02  0.19641371207E+02  0.00000000000E+00 0. -1.
      -24    2    1    2    0    0  0.00000000000E+00  0.00000000000E+00  0.80000036952E+02  0.11928277937E+03  0.88478107692E+02 0.  0.
       11    1    3    3    0    0  0.27668056374E+02  0.17083334609E+02 -0.43880957149E+00  0.32520058713E+02  0.00000000000E+00 0. -1.
      -12    1    3    3    0    0 -0.27668056374E+02 -0.17083334609E+02  0.80438846523E+02  0.86762720652E+02  0.00000000000E+00 0.  1.
</event>
<event>
 5   1  0.6181100E+00  0.7791506E+02  0.7957747E-01  0.1333268E+00
        1   -1    0    0  501    0  0.00000000000E+00  0.00000000000E+00  0.22108328626E+03  0.22108328626E+03  0.00000000000E+00 0. -1.
       -2   -1    0    0    0  501  0.00000000000E+00  0.00000000000E+00 -0.68647843824E+01  0.68647843824E+01  0.00000000000E+00 0.  1.
      -24    2    1    2    0    0  0.00000000000E+00  0.00000000000E+00  0.21421850188E+03  0.22794807064E+03  0.77915058641E+02 0.  0.
       11    1    3    3    0    0 -0.32896011012E+02 -0.79260131337E+01  0.16359069470E+03  0.16705353818E+03  0.00000000000E+00 0. -1.
      -12    1    3    3    0    0  0.32896011012E+02  0.79260131337E+01  0.50627807179E+02  0.60894532468E+02  0.00000000000E+00 0.  1.
</event>
<event>
 5   1  0.6181100E+00  0.7937932E+02  0.7957747E-01  0.1329242E+00
       -2   -1    0    0    0  501  0.00000000000E+00  0.00000000000E+00  0.72624170067E+01  0.72624170067E+01  0.00000000000E+00 0.  1.
        1   -1    0    0  501    0  0.00000000000E+00  0.00000000000E+00 -0.21690699751E+03  0.21690699751E+03  0.00000000000E+00 0. -1.
      -24    2    1    2    0    0  0.00000000000E+00  0.00000000000E+00 -0.20964458050E+03  0.22416941452E+03  0.79379318908E+02 0.  0.
       11    1    3    3    0    0  0.28964650085E+02  0.26854532623E+02 -0.93829531366E+02  0.10180421324E+03  0.00000000000E+00 0. -1.
      -12    1    3    3    0    0 -0.28964650085E+02 -0.26854532623E+02 -0.11581504914E+03  0.12236520128E+03  0.00000000000E+00 0.  1.
</event>
<event>
 5   1  0.6181100E+00  0.8050693E+02  0.7957747E-01  0.1326208E+00
       -2   -1    0    0    0  501  0.00000000000E+00  0.00000000000E+00  0.27722646394E+02  0.27722646394E+02  0.00000000000E+00 0.  1.
        1   -1    0    0  501    0  0.00000000000E+00  0.00000000000E+00 -0.58448290060E+02  0.58448290060E+02  0.00000000000E+00 0. -1.
      -24    2    1    2    0    0  0.00000000000E+00  0.00000000000E+00 -0.30725643667E+02  0.86170936454E+02  0.80506925855E+02 0.  0.
       11    1    3    3    0    0  0.36526507083E+02  0.16203823694E+02 -0.20561665762E+02  0.44939200269E+02  0.00000000000E+00 0. -1.
      -12    1    3    3    0    0 -0.36526507083E+02 -0.16203823694E+02 -0.10163977905E+02  0.41231736185E+02  0.00000000000E+00 0.  1.
</event>
<event>
 6   2  0.6181100E+00  0.8399257E+02  0.7957747E-01  0.1317174E+00
       21   -1    0    0  501  502  0.00000000000E+00  0.00000000000E+00  0.13787975212E+03  0.13787975212E+03  0.00000000000E+00 0.  1.
       -4   -1    0    0    0  501  0.00000000000E+00  0.00000000000E+00 -0.36988935586E+02  0.36988935586E+02  0.00000000000E+00 0.  1.
      -24    2    1    2    0    0 -0.20058169521E+02 -0.26892822767E+02  0.18636131392E+02  0.86035206917E+02  0.77001281516E+02 0.  0.
       11    1    3    3    0    0 -0.48513357770E+01 -0.45830562902E+02  0.34022203794E+02  0.57284258796E+02  0.00000000000E+00 0. -1.
      -12    1    3    3    0    0 -0.15206833744E+02  0.18937740135E+02 -0.15386072402E+02  0.28750948122E+02  0.00000000000E+00 0.  1.
       -3    1    1    2    0  502  0.20058169521E+02  0.26892822767E+02  0.82254685140E+02  0.88833480785E+02  0.00000000000E+00 0.  1.
</event>
<event>
 6   2  0.6181100E+00  0.1035874E+03  0.7957747E-01  0.1274231E+00
       -2   -1    0    0    0  501  0.00000000000E+00  0.00000000000E+00  0.59920631514E+02  0.59920631514E+02  0.00000000000E+00 0.  1.
       21   -1    0    0  501  502  0.00000000000E+00  0.00000000000E+00 -0.20314754263E+03  0.20314754263E+03  0.00000000000E+00 0.  1.
      -24    2    1    2    0    0  0.65689643768E+02 -0.96606822978E+01  0.17589660199E+01  0.10360230742E+03  0.79510289024E+02 0.  0.
       11    1    3    3    0    0  0.32961713071E+02  0.34117962051E+02  0.95466365033E+01  0.48390578955E+02  0.00000000000E+00 0. -1.
      -12    1    3    3    0    0  0.32727930698E+02 -0.43778644348E+02 -0.77876704834E+01  0.55211728467E+02  0.00000000000E+00 0.  1.
       -1    1    1    2    0  502 -0.65689643768E+02  0.96606822978E+01 -0.14498587714E+03  0.15946586672E+03  0.00000000000E+00 0.  1.
</event>
<event>
 5   1  0.6181100E+00  0.7918649E+02  0.7957747E-01  0.1329766E+00
       -4   -1    0    0    0  501  0.00000000000E+00  0.00000000000E+00  0.24452428340E+02  0.24452428340E+02  0.00000000000E+00 0.  1.
        3   -1    0    0  501    0  0.00000000000E+00  0.00000000000E+00 -0.64109176967E+02  0.64109176967E+02  0.00000000000E+00 0. -1.
      -24    2    1    2    0    0  0.00000000000E+00  0.00000000000E+00 -0.39656748627E+02  0.88561605307E+02  0.79186490154E+02 0.  0.
       11    1    3    3    0    0 -0.68674022426E+01 -0.80911117545E+01 -0.62488835645E+02  0.63383608948E+02  0.00000000000E+00 0. -1.
      -12    1    3    3    0    0  0.68674022426E+01  0.80911117545E+01  0.22832087019E+02  0.25177996358E+02  0.00000000000E+00 0.  1.
</event>
<event>
 5   1  0.6181100E+00  0.7289324E+02  0.7957747E-01  0.1347877E+00
       -2   -1    0    0    0  501  0.00000000000E+00  0.00000000000E+00  0.32299110632E+01  0.32299110632E+01  0.00000000000E+00 0.  1.
        1   -1    0    0  501    0  0.00000000000E+00  0.00000000000E+00 -0.41126705361E+03  0.41126705361E+03  0.00000000000E+00 0. -1.
      -24    2    1    2    0    0  0.00000000000E+00  0.00000000000E+00 -0.40803714255E+03  0.41449696467E+03  0.72893237173E+02 0.  0.
       11    1    3    3    0    0  0.24945879749E+02 -0.11841800471E+02 -0.68756065463E+02  0.74094005781E+02  0.00000000000E+00 0. -1.
      -12    1    3    3    0    0 -0.24945879749E+02  0.11841800471E+02 -0.33928107708E+03  0.34040295889E+03  0.00000000000E+00 0.  1.
</event>
<event>
 5   1  0.6181100E+00  0.8143100E+02  0.7957747E-01  0.1323763E+00
        1   -1    0    0  501    0  0.00000000000E+00  0.00000000000E+00  0.13230184875E+02  0.13230184875E+02  0.00000000000E+00 0. -1.
       -2   -1    0    0    0  501  0.00000000000E+00  0.00000000000E+00 -0.12530073961E+03  0.12530073961E+03  0.00000000000E+00 0.  1.
      -24    2    1    2    0    0  0.00000000000E+00  0.00000000000E+00 -0.11207055474E+03  0.13853092449E+03  0.81431000242E+02 0.  0.
       11    1    3    3    0    0  0.55817064001E+01  0.16955025110E+02  0.62187280962E+01  0.18902404661E+02  0.00000000000E+00 0. -1.
      -12    1    3    3    0    0 -0.55817064001E+01 -0.16955025110E+02 -0.11828928283E+03  0.11962851983E+03  0.00000000000E+00 0.  1.
</event>
<event>
 4   3  0.6181100E+00  0.1787445E+03  0.7957747E-01  0.1174600E+00
       21   -1    0    0  503  502  0.00000000000E+00  0.00000000000E+00  0.22134065782E+03  0.22134065782E+03  0.00000000000E+00 0. -1.
       21   -1    0    0  501  503  0.00000000000E+00  0.00000000000E+00 -0.17365713290E+03  0.17365713290E+03  0.00000000000E+00 0. -1.
        6    1    1    2  501    0  0.35667059222E+02 -0.27358045391E+02 -0.57298403700E+02  0.18770377947E+03  0.17300000000E+03 0. -1.
       -6    1    1    2    0  502 -0.35667059222E+02  0.27358045391E+02  0.10498192863E+03  0.20729401125E+03  0.17300000000E+03 0. -1.
</event>
<event>
 5   1  0.6181100E+00  0.8084454E+02  0.7957747E-01  0.1325310E+00
       -2   -1    0    0    0  501  0.00000000000E+00  0.00000000000E+00  0.28833341997E+02  0.28833341997E+02  0.00000000000E+00 0.  1.
        1   -1    0    0  501    0  0.00000000000E+00  0.00000000000E+00 -0.56669108420E+02  0.56669108420E+02  0.00000000000E+00 0. -1.
      -24    2    1    2    0    0  0.00000000000E+00  0.00000000000E+00 -0.27835766423E+02  0.85502450418E+02  0.80844536829E+02 0.  0.
       11    1    3    3    0    0 -0.18708273722E+02  0.22481287812E+02 -0.43428051753E+02  0.52358413712E+02  0.00000000000E+00 0. -1.
      -12    1    3    3    0    0  0.18708273722E+02 -0.22481287812E+02  0.15592285330E+02  0.33144036706E+02  0.00000000000E+00 0.  1.
</event>
<event>
 6   2  0.6181100E+00  0.8721776E+02  0.7957747E-01  0.1309245E+00
       21   -1    0    0  501  502  0.00000000000E+00  0.00000000000E+00  0.14074315206E+03  0.14074315206E+03  0.00000000000E+00 0.  1.
        1   -1    0    0  502    0  0.00000000000E+00  0.00000000000E+00 -0.26922148196E+02  0.26922148196E+02  0.00000000000E+00 0. -1.
      -24    2    1    2    0    0 -0.34891065499E+02  0.19751802192E+01  0.71492713941E+02  0.11277475538E+03  0.79910259144E+02 0.  0.
       11    1    3    3    0    0 -0.68636358100E+00 -0.24305039751E+02 -0.51252994711E+01  0.24849039155E+02  0.00000000000E+00 0. -1.
      -12    1    3    3    0    0 -0.34204701918E+02  0.26280219970E+02  0.76618013412E+02  0.87925716228E+02  0.00000000000E+00 0.  1.
        2    1    1    2  501    0  0.34891065499E+02 -0.19751802192E+01  0.42328289920E+02  0.54890544870E+02  0.00000000000E+00 0. -1.
</event>
<event>
 6   2  0.6181100E+00  0.8722467E+02  0.7957747E-01  0.1309228E+00
       -4   -1    0    0    0  501  0.00000000000E+00  0.00000000000E+00  0.17265633401E+02  0.17265633401E+02  0.00000000000E+00 0.  1.
       21   -1    0    0  501  502  0.00000000000E+00  0.00000000000E+00 -0.23954842523E+03  0.23954842523E+03  0.00000000000E+00 0. -1.
      -24    2    1    2    0    0  0.26392912570E+02  0.28003075740E+02 -0.12713956364E+03  0.15418369297E+03  0.78277611430E+02 0.  0.
       11    1    3    3    0    0  0.16696562110E+02  0.15553191627E+02 -0.13474697488E+03  0.13666537307E+03  0.00000000000E+00 0. -1.
      -12    1    3    3    0    0  0.96963504597E+01  0.12449884113E+02  0.76074112376E+01  0.17518319908E+02  0.00000000000E+00 0.  1.
       -3    1    1    2    0  502 -0.26392912570E+02 -0.28003075740E+02 -0.95143228184E+02  0.10263036565E+03  0.00000000000E+00 0.  1.
</event>
<event>
 6   2  0.6181100E+00  0.8765846E+02  0.7957747E-01  0.1308192E+00
       21   -1    0    0  501  502  0.00000000000E+00  0.00000000000E+00  0.19583395967E+02  0.19583395967E+02  0.00000000000E+00 0. -1.
       -2   -1    0    0    0  501  0.00000000000E+00  0.00000000000E+00 -0.18921751852E+03  0.18921751852E+03  0.00000000000E+00 0.  1.
      -24    2    1    2    0    0 -0.18746716339E+02  0.27886595175E+02 -0.11398128554E+03  0.14379060891E+03  0.80962362815E+02 0.  0.
       11    1    3    3    0    0  0.40443200689E+01  0.45506472956E+02 -0.29130465216E+02  0.54182835007E+02  0.00000000000E+00 0. -1.
      -12    1    3    3    0    0 -0.22791036408E+02 -0.17619877781E+02 -0.84850820327E+02  0.89607773902E+02  0.00000000000E+00 0.  1.
       -1    1    1    2    0  502  0.18746716339E+02 -0.27886595175E+02 -0.55652837005E+02  0.65010305573E+02  0.00000000000E+00 0.  1.
</event>
<event>
 5   1  0.6181100E+00  0.8032363E+02  0.7957747E-01  0.1326697E+00
        1   -1    0    0  501    0  0.00000000000E+00  0.00000000000E+00  0.64146521907E+02  0.64146521907E+02  0.00000000000E+00 0. -1.
       -2   -1    0    0    0  501  0.00000000000E+00  0.00000000000E+00 -0.25145111611E+02  0.25145111611E+02  0.00000000000E+00 0.  1.
      -24    2    1    2    0    0  0.00000000000E+00  0.00000000000E+00  0.39001410296E+02  0.89291633518E+02  0.80323631711E+02 0.  0.
       11    1    3    3    0    0  0.27346124164E+02 -0.18137802631E+02  0.45241571935E+02  0.55889088580E+02  0.00000000000E+00 0. -1.
      -12    1    3    3    0    0 -0.27346124164E+02  0.18137802631E+02 -0.62401616395E+01  0.33402544939E+02  0.00000000000E+00 0.  1.
</event>
<event>
 5   1  0.6181100E+00  0.8076181E+02  0.7957747E-01  0.1325530E+00
       -2   -1    0    0    0  501  0.00000000000E+00  0.00000000000E+00  0.32144933196E+03  0.32144933196E+03  0.00000000000E+00 0.  1.
        1   -1    0    0  501    0  0.00000000000E+00  0.00000000000E+00 -0.50727041072E+01  0.50727041072E+01  0.00000000000E+00 0. -1.
      -24    2    1    2    0    0  0.00000000000E+00  0.00000000000E+00  0.31637662786E+03  0.32652203607E+03  0.80761806481E+02 0.  0.
       11    1    3    3    0    0 -0.35520976252E+02  0.11173106951E+02  0.22134747214E+03  0.22445774992E+03  0.00000000000E+00 0. -1.
      -12    1    3    3    0    0  0.35520976252E+02 -0.11173106951E+02  0.95029155713E+02  0.10206428616E+03  0.00000000000E+00 0.  1.
</event>
<event>
 5   1  0.6181100E+00  0.8012171E+02  0.7957747E-01  0.1327238E+00
       -2   -1    0    0    0  501  0.00000000000E+00  0.00000000000E+00  0.69027351238E+02  0.69027351238E+02  0.00000000000E+00 0.  1.
        1   -1    0    0  501    0  0.00000000000E+00  0.00000000000E+00 -0.23249802789E+02  0.23249802789E+02  0.00000000000E+00 0. -1.
      -24    2    1    2    0    0  0.00000000000E+00  0.00000000000E+00  0.45777548450E+02  0.92277154027E+02  0.80121714992E+02 0.  0.
       11    1    3    3    0    0  0.11076036381E+02  0.35575830407E+02  0.59404379502E+01  0.37730718176E+02  0.00000000000E+00 0. -1.
      -12    1    3    3    0    0 -0.11076036381E+02 -0.35575830407E+02  0.39837110500E+02  0.54546435851E+02  0.00000000000E+00 0.  1.
</event>
<event>
 5   1  0.6181100E+00  0.8169082E+02  0.7957747E-01  0.1323082E+00
       -2   -1    0    0    0  501  0.00000000000E+00  0.00000000000E+00  0.54647275485E+01  0.54647275485E+01  0.00000000000E+00 0.  1.
        1   -1    0    0  501    0  0.00000000000E+00  0.00000000000E+00 -0.30529382715E+03  0.30529382715E+03  0.00000000000E+00 0. -1.
      -24    2    1    2    0    0  0.00000000000E+00  0.00000000000E+00 -0.29982909960E+03  0.31075855470E+03  0.81690821702E+02 0.  0.
       11    1    3    3    0    0  0.37429400042E+02  0.16264263576E+02 -0.15634933173E+03  0.16158774641E+03  0.00000000000E+00 0. -1.
      -12    1    3    3    0    0 -0.37429400042E+02 -0.16264263576E+02 -0.14347976787E+03  0.14917080828E+03  0.00000000000E+00 0.  1.
</event>
<event>
 6   2  0.6181100E+00  0.8625190E+02  0.7957747E-01  0.1311578E+00
       21   -1    0    0  501  502  0.00000000000E+00  0.00000000000E+00  0.24959201222E+03  0.24959201222E+03  0.00000000000E+00 0.  1.
        3   -1    0    0  502    0  0.00000000000E+00  0.00000000000E+00 -0.14397929389E+02  0.14397929389E+02  0.00000000000E+00 0. -1.
      -24    2    1    2    0    0  0.17678603793E+02 -0.28326535511E+02  0.17699975601E+03  0.19689668323E+03  0.79526502454E+02 0.  0.
       11    1    3    3    0    0 -0.31179576427E+02 -0.46744631024E+01  0.55673191195E+02  0.63980628391E+02  0.00000000000E+00 0. -1.
      -12    1    3    3    0    0  0.48858180220E+02 -0.23652072409E+02  0.12132656482E+03  0.13291605484E+03  0.00000000000E+00 0.  1.
        4    1    1    2  501    0 -0.17678603793E+02  0.28326535511E+02  0.58194326823E+02  0.67093258384E+02  0.00000000000E+00 0. -1.
</event>
<event>
 5   1  0.6181100E+00  0.8035793E+02  0.7957747E-01  0.1326605E+00
       -2   -1    0    0    0  501  0.00000000000E+00  0.00000000000E+00  0.18818169662E+03  0.18818169662E+03  0.00000000000E+00 0.  1.
        1   -1    0    0  501    0  0.00000000000E+00  0.00000000000E+00 -0.85786737116E+01  0.85786737116E+01  0.00000000000E+00 0. -1.
      -24    2    1    2    0    0  0.00000000000E+00  0.00000000000E+00  0.17960302290E+03  0.19676037033E+03  0.80357933616E+02 0.  0.
       11    1    3    3    0    0 -0.37997805563E+02  0.43963688676E+00  0.12175699167E+03  0.12754917299E+03  0.00000000000E+00 0. -1.
      -12    1    3    3    0    0  0.37997805563E+02 -0.43963688676E+00  0.57846031230E+02  0.69211197340E+02  0.00000000000E+00 0.  1.
</event>
<event>
 5   1  0.6181100E+00  0.7990731E+02  0.7957747E-01  0.1327814E+00
        1   -1    0    0  501    0  0.00000000000E+00  0.00000000000E+00  0.25011867332E+03  0.25011867332E+03  0.00000000000E+00 0. -1.
       -2   -1    0    0    0  501  0.00000000000E+00  0.00000000000E+00 -0.63821483155E+01  0.63821483155E+01  0.00000000000E+00 0.  1.
      -24    2    1    2    0    0  0.00000000000E+00  0.00000000000E+00  0.24373652501E+03  0.25650082164E+03  0.79907308042E+02 0.  0.
       11    1    3    3    0    0 -0.10942945964E+02 -0.38081713771E+02  0.13833939260E+03  0.14390188509E+03  0.00000000000E+00 0. -1.
      -12    1    3    3    0    0  0.10942945964E+02  0.38081713771E+02  0.10539713241E+03  0.11259893654E+03  0.00000000000E+00 0.  1.
</event>
<event>
 5   1  0.6181100E+00  0.7942732E+02  0.7957747E-01  0.1329112E+00
        1   -1    0    0  501    0  0.00000000000E+00  0.00000000000E+00  0.97918887421E+02  0.97918887421E+02  0.00000000000E+00 0. -1.
       -2   -1    0    0    0  501  0.00000000000E+00  0.00000000000E+00 -0.16106951136E+02  0.16106951136E+02  0.00000000000E+00 0.  1.
      -24    2    1    2    0    0  0.00000000000E+00  0.00000000000E+00  0.81811936285E+02  0.11402583856E+03  0.79427318599E+02 0.  0.
       11    1    3    3    0    0 -0.20121907556E+02 -0.21830125255E+02  0.78772322070E+02  0.84181495928E+02  0.00000000000E+00 0. -1.
      -12    1    3    3    0    0  0.20121907556E+02  0.21830125255E+02  0.30396142154E+01  0.29844342629E+02  0.00000000000E+00 0.  1.
</event>
<event>
 4   3  0.6181100E+00  0.1837603E+03  0.7957747E-01  0.1169960E+00
       21   -1    0    0  503  502  0.00000000000E+00  0.00000000000E+00  0.89983276915E+02  0.89983276915E+02  0.00000000000E+00 0.  1.
       21   -1    0    0  501  503  0.00000000000E+00  0.00000000000E+00 -0.50953145062E+03  0.50953145062E+03  0.00000000000E+00 0.  1.
        6    1    1    2  501    0  0.26546342792E+01  0.61901625220E+02 -0.36364729716E+03  0.40743982994E+03  0.17300000000E+03 0.  1.
       -6    1    1    2    0  502 -0.26546342792E+01 -0.61901625220E+02 -0.55900876543E+02  0.19207489760E+03  0.17300000000E+03 0.  1.
</event>
<event>
 5   1  0.6181100E+00  0.8239991E+02  0.7957747E-01  0.1321239E+00
       -2   -1    0    0    0  501  0.00000000000E+00  0.00000000000E+00  0.25291034298E+03  0.25291034298E+03  0.00000000000E+00 0.  1.
        1   -1    0    0  501    0  0.00000000000E+00  0.00000000000E+00 -0.67116130330E+01  0.67116130330E+01  0.00000000000E+00 0. -1.
      -24    2    1    2    0    0  0.00000000000E+00  0.00000000000E+00  0.24619872994E+03  0.25962195601E+03  0.82399911508E+02 0.  0.
       11    1    3    3    0    0 -0.21630379578E+02  0.95799726034E+01  0.16820921259E+02  0.29027445423E+02  0.00000000000E+00 0. -1.
      -12    1    3    3    0    0  0.21630379578E+02 -0.95799726034E+01  0.22937780868E+03  0.23059451059E+03  0.00000000000E+00 0.  1.
</event>
<event>
 5   1  0.6181100E+00  0.7907020E+02  0.7957747E-01  0.1330084E+00
        1   -1    0    0  501    0  0.00000000000E+00  0.00000000000E+00  0.25355569095E+03  0.25355569095E+03  0.00000000000E+00 0. -1.
       -2   -1    0    0    0  501  0.00000000000E+00  0.00000000000E+00 -0.61644208394E+01  0.61644208394E+01  0.00000000000E+00 0.  1.
      -24    2    1    2    0    0  0.00000000000E+00  0.00000000000E+00  0.24739127011E+03  0.25972011179E+03  0.79070196288E+02 0.  0.
       11    1    3    3    0    0  0.34238192566E+02 -0.26909149076E+01  0.18802243439E+03  0.19113327990E+03  0.00000000000E+00 0. -1.
      -12    1    3    3    0    0 -0.34238192566E+02  0.26909149076E+01  0.59368835728E+02  0.68586831891E+02  0.00000000000E+00 0.  1.
</event>
<event>
 5   1  0.6181100E+00  0.8103674E+02  0.7957747E-01  0.1324802E+00
        1   -1    0    0  501    0  0.00000000000E+00  0.00000000000E+00  0.36395101892E+01  0.36395101892E+01  0.00000000000E+00 0. -1.
       -2   -1    0    0    0  501  0.00000000000E+00  0.00000000000E+00 -0.45108768194E+03  0.45108768194E+03  0.00000000000E+00 0.  1.
      -24    2    1    2    0    0  0.00000000000E+00  0.00000000000E+00 -0.44744817175E+03  0.45472719213E+03  0.81036737709E+02 0.  0.
       11    1    3    3    0    0 -0.21690933779E+02  0.33953649891E+02 -0.19965969998E+03  0.20368441950E+03  0.00000000000E+00 0. -1.
      -12    1    3    3    0    0  0.21690933779E+02 -0.33953649891E+02 -0.24778847177E+03  0.25104277263E+03  0.00000000000E+00 0.  1.
</event>
<event>
 6   2  0.6181100E+00  0.8680318E+02  0.7957747E-01  0.1310242E+00
       21   -1    0    0  501  502  0.00000000000E+00  0.00000000000E+00  0.79290112355E+02  0.79290112355E+02  0.00000000000E+00 0.  1.
       -4   -1    0    0    0  501  0.00000000000E+00  0.00000000000E+00 -0.48605506202E+02  0.48605506202E+02  0.00000000000E+00 0.  1.
      -24    2    1    2    0    0 -0.31825820819E+02 -0.65542821373E+01  0.58534939600E+01  0.87000317875E+02  0.80491927754E+02 0.  0.
       11    1    3    3    0    0 -0.15297019369E+02 -0.32118479032E+02  0.31253125085E+02  0.47353493266E+02  0.00000000000E+00 0. -1.
      -12    1    3    3    0    0 -0.16528801450E+02  0.25564196895E+02 -0.25399631125E+02  0.39646824609E+02  0.00000000000E+00 0.  1.
       -3    1    1    2    0  502  0.31825820819E+02  0.65542821373E+01  0.24831112194E+02  0.40895300683E+02  0.00000000000E+00 0.  1.
</event>
<event>
 6   2  0.6181100E+00  0.8235561E+02  0.7957747E-01  0.1321353E+00
       21   -1    0    0  501  502  0.00000000000E+00  0.00000000000E+00  0.30415443188E+03  0.30415443188E+03  0.00000000000E+00 0. -1.
        1   -1    0    0  502    0  0.00000000000E+00  0.00000000000E+00 -0.36174000523E+02  0.36174000523E+02  0.00000000000E+00 0. -1.
      -24    2    1    2    0    0  0.19616403429E+02 -0.89164725421E+01  0.11745364375E+02  0.83188944347E+02  0.79486729151E+02 0.  0.
       11    1    3    3    0    0 -0.17793549770E+01 -0.39292257104E+02 -0.93978164731E+01  0.40439665267E+02  0.00000000000E+00 0. -1.
      -12    1    3    3    0    0  0.21395758406E+02  0.30375784561E+02  0.21143180848E+02  0.42749279080E+02  0.00000000000E+00 0.  1.
        2    1    1    2  501    0 -0.19616403429E+02  0.89164725421E+01  0.25623506699E+03  0.25713948806E+03  0.00000000000E+00 0. -1.
</event>
<event>
 5   1  0.6181100E+00  0.8011245E+02  0.7957747E-01  0.1327263E+00
       -2   -1    0    0    0  501  0.00000000000E+00  0.00000000000E+00  0.96584304630E+02  0.96584304630E+02  0.00000000000E+00 0.  1.
        1   -1    0    0  501    0  0.00000000000E+00  0.00000000000E+00 -0.16612441833E+02  0.16612441833E+02  0.00000000000E+00 0. -1.
      -24    2    1    2    0    0  0.00000000000E+00  0.00000000000E+00  0.79971862797E+02  0.11319674646E+03  0.80112449535E+02 0.  0.
       11    1    3    3    0    0  0.38376797908E+02 -0.20032288267E+01  0.24018108600E+02  0.45317337566E+02  0.00000000000E+00 0. -1.
      -12    1    3    3    0    0 -0.38376797908E+02  0.20032288267E+01  0.55953754197E+02  0.67879408896E+02  0.00000000000E+00 0.  1.
</event>
<event>
 5   1  0.6181100E+00  0.8182346E+02  0.7957747E-01  0.1322736E+00
       -2   -1    0    0    0  501  0.00000000000E+00  0.00000000000E+00  0.30069390692E+01  0.30069390692E+01  0.00000000000E+00 0.  1.
        1   -1    0    0  501    0  0.00000000000E+00  0.00000000000E+00 -0.55663568215E+03  0.55663568215E+03  0.00000000000E+00 0. -1.
      -24    2    1    2    0    0  0.00000000000E+00  0.00000000000E+00 -0.55362874308E+03  0.55964262122E+03  0.81823458249E+02 0.  0.
       11    1    3    3    0    0 -0.48035179599E+01 -0.33763783178E+02 -0.12224727628E+03  0.12691518191E+03  0.00000000000E+00 0. -1.
      -12    1    3    3    0    0  0.48035179599E+01  0.33763783178E+02 -0.43138146679E+03  0.43272743931E+03  0.00000000000E+00 0.  1.
</event>
<event>
 5   1  0.6181100E+00  0.8122049E+02  0.7957747E-01  0.1324317E+00
        3   -1    0    0  501    0  0.00000000000E+00  0.00000000000E+00  0.11560753415E+03  0.11560753415E+03  0.00000000000E+00 0. -1.
       -4   -1    0    0    0  501  0.00000000000E+00  0.00000000000E+00 -0.14265438311E+02  0.14265438311E+02  0.00000000000E+00 0.  1.
      -24    2    1    2    0    0  0.00000000000E+00  0.00000000000E+00  0.10134209584E+03  0.12987297247E+03  0.81220493640E+02 0.  0.
       11    1    3    3    0    0  0.91337063380E+01  0.39511897200E+02  0.47249922531E+02  0.62266923732E+02  0.00000000000E+00 0. -1.
      -12    1    3    3    0    0 -0.91337063380E+01 -0.39511897200E+02  0.54092173312E+02  0.67606048734E+02  0.00000000000E+00 0.  1.
</event>
<event>
 5   1  0.6181100E+00  0.8313011E+02  0.7957747E-01  0.1319362E+00
       -4   -1    0    0    0  501  0.00000000000E+00  0.00000000000E+00  0.24960828805E+03  0.24960828805E+03  0.00000000000E+00 0.  1.
        3   -1    0    0  501    0  0.00000000000E+00  0.00000000000E+00 -0.69214606445E+01  0.69214606445E+01  0.00000000000E+00 0. -1.
      -24    2    1    2    0    0  0.00000000000E+00  0.00000000000E+00  0.24268682741E+03  0.25652974870E+03  0.83130113492E+02 0.  0.
       11    1    3    3    0    0  0.18558063915E+02  0.79870217397E+00  0.65994411655E+01  0.19712744231E+02  0.00000000000E+00 0. -1.
      -12    1    3    3    0    0 -0.18558063915E+02 -0.79870217397E+00  0.23608738624E+03  0.23681700447E+03  0.00000000000E+00 0.  1.
</event>
<event>
 5   1  0.6181100E+00  0.7615539E+02  0.7957747E-01  0.1338241E+00
       -4   -1    0    0    0  501  0.00000000000E+00  0.00000000000E+00  0.57241085084E+01  0.57241085084E+01  0.00000000000E+00 0.  1.
        3   -1    0    0  501    0  0.00000000000E+00  0.00000000000E+00 -0.25329898870E+03  0.25329898870E+03  0.00000000000E+00 0. -1.
      -24    2    1    2    0    0  0.00000000000E+00  0.00000000000E+00 -0.24757488019E+03  0.25902309721E+03  0.76155391047E+02 0.  0.
       11    1    3    3    0    0  0.85363224432E+01  0.35967847702E+02 -0.15484063889E+03  0.15919226841E+03  0.00000000000E+00 0. -1.
      -12    1    3    3    0    0 -0.85363224432E+01 -0.35967847702E+02 -0.92734241302E+02  0.99830828800E+02  0.00000000000E+00 0.  1.
</event>
<event>
 5   1  0.6181100E+00  0.8086729E+02  0.7957747E-01  0.1325250E+00
       -2   -1    0    0    0  501  0.00000000000E+00  0.00000000000E+00  0.25188508921E+03  0.25188508921E+03  0.00000000000E+00 0.  1.
        1   -1    0    0  501    0  0.00000000000E+00  0.00000000000E+00 -0.64905768461E+01  0.64905768461E+01  0.00000000000E+00 0. -1.
      -24    2    1    2    0    0  0.00000000000E+00  0.00000000000E+00  0.24539451236E+03  0.25837566605E+03  0.80867287030E+02 0.  0.
       11    1    3    3    0    0  0.30465532609E+02 -0.46457260538E+01  0.39065549746E+02  0.49757900123E+02  0.00000000000E+00 0. -1.
      -12    1    3    3    0    0 -0.30465532609E+02  0.46457260538E+01  0.20632896262E+03  0.20861776593E+03  0.00000000000E+00 0.  1.
</event>
<event>
 4   3  0.6181100E+00  0.1922967E+03  0.7957747E-01  0.1162424E+00
       21   -1    0    0  503  502  0.00000000000E+00  0.00000000000E+00  0.79047841350E+02  0.79047841350E+02  0.00000000000E+00 0.  1.
       21   -1    0    0  501  503  0.00000000000E+00  0.00000000000E+00 -0.66773561729E+03  0.66773561729E+03  0.00000000000E+00 0.  1.
        6    1    1    2  501    0  0.64073041800E+02  0.54255565837E+02 -0.49866591484E+03  0.53445833863E+03  0.17300000000E+03 0.  1.
       -6    1    1    2    0  502 -0.64073041800E+02 -0.54255565837E+02 -0.90021861097E+02  0.21232512001E+03  0.17300000000E+03 0.  1.
</event>
<event>
 6   2  0.6181100E+00  0.8614121E+02  0.7957747E-01  0.1311848E+00
       -4   -1    0    0    0  501  0.00000000000E+00  0.00000000000E+00  0.14322551591E+02  0.14322551591E+02  0.00000000000E+00 0.  1.
        3   -1    0    0  502    0  0.00000000000E+00  0.00000000000E+00 -0.32097738935E+03  0.32097738935E+03  0.00000000000E+00 0. -1.
      -24    2    1    2    0    0 -0.16478775359E+02 -0.30750773057E+02 -0.13504319699E+03  0.16017793968E+03  0.78760061095E+02 0.  0.
       11    1    3    3    0    0 -0.16002754816E+02  0.25350159259E+02 -0.44219470303E+02  0.53423593009E+02  0.00000000000E+00 0. -1.
      -12    1    3    3    0    0 -0.47602054287E+00 -0.56100932316E+02 -0.90823726692E+02  0.10675434667E+03  0.00000000000E+00 0.  1.
       21    1    1    2  502  501  0.16478775359E+02  0.30750773057E+02 -0.17161164076E+03  0.17512200126E+03  0.00000000000E+00 0. -1.
</event>
<event>
 5   1  0.6181100E+00  0.8015509E+02  0.7957747E-01  0.1327148E+00
       -2   -1    0    0    0  501  0.00000000000E+00  0.00000000000E+00  0.58720090130E+03  0.58720090130E+03  0.00000000000E+00 0.  1.
        1   -1    0    0  501    0  0.00000000000E+00  0.00000000000E+00 -0.27353666694E+01  0.27353666694E+01  0.00000000000E+00 0. -1.
      -24    2    1    2    0    0  0.00000000000E+00  0.00000000000E+00  0.58446553463E+03  0.58993626797E+03  0.80155094003E+02 0.  0.
       11    1    3    3    0    0 -0.16693910372E+02  0.29785071004E+02  0.13778410524E+03  0.14195174094E+03  0.00000000000E+00 0. -1.
      -12    1    3    3    0    0  0.16693910372E+02 -0.29785071004E+02  0.44668142939E+03  0.44798452703E+03  0.00000000000E+00 0.  1.
</event>
<event>
 5   1  0.6181100E+00  0.7934391E+02  0.7957747E-01  0.1329338E+00
       -2   -1    0    0    0  501  0.00000000000E+00  0.00000000000E+00  0.40104575992E+02  0.40104575992E+02  0.00000000000E+00 0.  1.
        1   -1    0    0  501    0  0.00000000000E+00  0.00000000000E+00 -0.39244002501E+02  0.39244002501E+02  0.00000000000E+00 0. -1.
      -24    2    1    2    0    0  0.00000000000E+00  0.00000000000E+00  0.86057349094E+00  0.79348578493E+02  0.79343911689E+02 0.  0.
       11    1    3    3    0    0  0.12997480607E+01  0.26269590106E+02 -0.29271348528E+02  0.39352160729E+02  0.00000000000E+00 0. -1.
      -12    1    3    3    0    0 -0.12997480607E+01 -0.26269590106E+02  0.30131922019E+02  0.39996417764E+02  0.00000000000E+00 0.  1.
</event>
<event>
 5   1  0.6181100E+00  0.7971587E+02  0.7957747E-01  0.1328330E+00
        1   -1    0    0  501    0  0.00000000000E+00  0.00000000000E+00  0.73895272182E+01  0.73895272182E+01  0.00000000000E+00 0. -1.
       -2   -1    0    0    0  501  0.00000000000E+00  0.00000000000E+00 -0.21498736875E+03  0.21498736875E+03  0.00000000000E+00 0.  1.
      -24    2    1    2    0    0  0.00000000000E+00  0.00000000000E+00 -0.20759784153E+03  0.22237689597E+03  0.79715870765E+02 0.  0.
       11    1    3    3    0    0 -0.45215562535E+01 -0.32314508041E+02 -0.39942655520E+02  0.51576037371E+02  0.00000000000E+00 0. -1.
      -12    1    3    3    0    0  0.45215562535E+01  0.32314508041E+02 -0.16765518601E+03  0.17080085860E+03  0.00000000000E+00 0.  1.
</event>
<event>
 5   1  0.6181100E+00  0.8147645E+02  0.7957747E-01  0.1323644E+00
       -2   -1    0    0    0  501  0.00000000000E+00  0.00000000000E+00  0.60303312347E+02  0.60303312347E+02  0.00000000000E+00 0.  1.
        1   -1    0    0  501    0  0.00000000000E+00  0.00000000000E+00 -0.27520926894E+02  0.27520926894E+02  0.00000000000E+00 0. -1.
      -24    2    1    2    0    0  0.00000000000E+00  0.00000000000E+00  0.32782385453E+02  0.87824239242E+02  0.81476451828E+02 0.  0.
       11    1    3    3    0    0 -0.25077649761E+02 -0.14953329022E+02 -0.14231919156E+02  0.32481349868E+02  0.00000000000E+00 0. -1.
      -12    1    3    3    0    0  0.25077649761E+02  0.14953329022E+02  0.47014304609E+02  0.55342889374E+02  0.00000000000E+00 0.  1.
</event>
<event>
 6   2  0.6181100E+00  0.9203202E+02  0.7957747E-01  0.1298103E+00
       -2   -1    0    0    0  501  0.00000000000E+00  0.00000000000E+00  0.94279691917E+03  0.94279691917E+03  0.00000000000E+00 0.  1.
        1   -1    0    0  502    0  0.00000000000E+00  0.00000000000E+00 -0.53796126792E+01  0.53796126792E+01  0.00000000000E+00 0. -1.
      -24    2    1    2    0    0  0.43391778369E+02  0.33832023808E+01  0.48377663877E+03  0.49245276914E+03  0.81090080312E+02 0.  0.
       11    1    3    3    0    0  0.47663797062E+02  0.98744307087E+01  0.13361922904E+03  0.14220914282E+03  0.00000000000E+00 0. -1.
      -12    1    3    3    0    0 -0.42720186930E+01 -0.64912283279E+01  0.35015740973E+03  0.35024362632E+03  0.00000000000E+00 0.  1.
       21    1    1    2  502  501 -0.43391778369E+02 -0.33832023808E+01  0.45364066772E+03  0.45572376271E+03  0.00000000000E+00 0.  1.
</event>
<event>
 6   2  0.6181100E+00  0.1020848E+03  0.7957747E-01  0.1277132E+00
        3   -1    0    0  502    0  0.00000000000E+00  0.00000000000E+00  0.14492782071E+03  0.14492782071E+03  0.00000000000E+00 0. -1.
       21   -1    0    0  501  502  0.00000000000E+00  0.00000000000E+00 -0.55233421488E+02  0.55233421488E+02  0.00000000000E+00 0. -1.
      -24    2    1    2    0    0 -0.17963405653E+02 -0.58583164882E+02  0.93951892282E+02  0.13873814071E+03  0.81649509937E+02 0.  0.
       11    1    3    3    0    0 -0.90023233941E+01 -0.61737325241E+02  0.10624059476E+03  0.12320553206E+03  0.00000000000E+00 0. -1.
      -12    1    3    3    0    0 -0.89610822587E+01  0.31541603587E+01 -0.12288702479E+02  0.15532608649E+02  0.00000000000E+00 0.  1.
        4    1    1    2  501    0  0.17963405653E+02  0.58583164882E+02 -0.42574930557E+01  0.61423101496E+02  0.00000000000E+00 0. -1.
</event>
<event>
 6   2  0.6181100E+00  0.8264040E+02  0.7957747E-01  0.1320618E+00
       -2   -1    0    0    0  501  0.00000000000E+00  0.00000000000E+00  0.14321234378E+02  0.14321234378E+02  0.00000000000E+00 0.  1.
        1   -1    0    0  502    0  0.00000000000E+00  0.00000000000E+00 -0.21412416560E+03  0.21412416560E+03  0.00000000000E+00 0. -1.
      -24    2    1    2    0    0 -0.20785796692E+02 -0.41860770459E+01 -0.11882140606E+03  0.14473411040E+03  0.79874048291E+02 0.  0.
       11    1    3    3    0    0 -0.40574448935E+02  0.23618552716E+02 -0.54606678724E+02  0.72013966007E+02  0.00000000000E+00 0. -1.
      -12    1    3    3    0    0  0.19788652244E+02 -0.27804629762E+02 -0.64214727337E+02  0.72720144395E+02  0.00000000000E+00 0.  1.
       21    1    1    2  502  501  0.20785796692E+02  0.41860770459E+01 -0.80981525158E+02  0.83711289573E+02  0.00000000000E+00 0. -1.
</event>
<event>
 5   1  0.6181100E+00  0.8008082E+02  0.7957747E-01  0.1327348E+00
       -2   -1    0    0    0  501  0.00000000000E+00  0.00000000000E+00  0.13599614378E+02  0.13599614378E+02  0.00000000000E+00 0.  1.
        1   -1    0    0  501    0  0.00000000000E+00  0.00000000000E+00 -0.11788821864E+03  0.11788821864E+03  0.00000000000E+00 0. -1.
      -24    2    1    2    0    0  0.00000000000E+00  0.00000000000E+00 -0.10428860427E+03  0.13148783302E+03  0.80080817010E+02 0.  0.
       11    1    3    3    0    0  0.19826443973E+02  0.99231659606E+01 -0.10688954969E+03  0.10916470554E+03  0.00000000000E+00 0. -1.
      -12    1    3    3    0    0 -0.19826443973E+02 -0.99231659606E+01  0.26009454253E+01  0.22323127478E+02  0.00000000000E+00 0.  1.
</event>
<event>
 6   2  0.6181100E+00  0.8312479E+02  0.7957747E-01  0.1319376E+00
       -2   -1    0    0    0  501  0.00000000000E+00  0.00000000000E+00  0.23088577661E+02  0.23088577661E+02  0.00000000000E+00 0.  1.
        1   -1    0    0  502    0  0.00000000000E+00  0.00000000000E+00 -0.11692613493E+03  0.11692613493E+03  0.00000000000E+00 0. -1.
      -24    2    1    2    0    0 -0.45371077157E+01 -0.20220763764E+02 -0.77101795749E+02  0.11337732632E+03  0.80500102996E+02 0.  0.
       11    1    3    3    0    0  0.36944281758E+02 -0.18922349184E+02 -0.41532639993E+02  0.58718782668E+02  0.00000000000E+00 0. -1.
      -12    1    3    3    0    0 -0.41481389474E+02 -0.12984145800E+01 -0.35569155756E+02  0.54658543653E+02  0.00000000000E+00 0.  1.
       21    1    1    2  502  501  0.45371077157E+01  0.20220763764E+02 -0.16735761518E+02  0.26637386269E+02  0.00000000000E+00 0. -1.
</event>
<event>
 5   1  0.6181100E+00  0.7903250E+02  0.7957747E-01  0.1330187E+00
        3   -1    0    0  501    0  0.00000000000E+00  0.00000000000E+00  0.80411190192E+01  0.80411190192E+01  0.00000000000E+00 0. -1.
       -4   -1    0    0    0  501  0.00000000000E+00  0.00000000000E+00 -0.19419360723E+03  0.19419360723E+03  0.00000000000E+00 0.  1.
      -24    2    1    2    0    0  0.00000000000E+00  0.00000000000E+00 -0.18615248821E+03  0.20223472625E+03  0.79032497328E+02 0.  0.
       11    1    3    3    0    0  0.23062724240E+02  0.29462279369E+02 -0.60545357289E+02  0.71173418102E+02  0.00000000000E+00 0. -1.
      -12    1    3    3    0    0 -0.23062724240E+02 -0.29462279369E+02 -0.12560713092E+03  0.13106130814E+03  0.00000000000E+00 0.  1.
</event>
<event>
 5   1  0.6181100E+00  0.8095171E+02  0.7957747E-01  0.1325026E+00
       -4   -1    0    0    0  501  0.00000000000E+00  0.00000000000E+00  0.91648462832E+01  0.91648462832E+01  0.00000000000E+00 0.  1.
        3   -1    0    0  501    0  0.00000000000E+00  0.00000000000E+00 -0.17875855229E+03  0.17875855229E+03  0.00000000000E+00 0. -1.
      -24    2    1    2    0    0  0.00000000000E+00  0.00000000000E+00 -0.16959370601E+03  0.18792339858E+03  0.80951705445E+02 0.  0.
       11    1    3    3    0    0 -0.39874255308E+02  0.13036988936E+01 -0.10065047416E+03  0.10826898825E+03  0.00000000000E+00 0. -1.
      -12    1    3    3    0    0  0.39874255308E+02 -0.13036988936E+01 -0.68943231850E+02  0.79654410331E+02  0.00000000000E+00 0.  1.
</event>
<event>
 5   1  0.6181100E+00  0.8330971E+02  0.7957747E-01  0.1318904E+00
        1   -1    0    0  501    0  0.00000000000E+00  0.00000000000E+00  0.29112425061E+02  0.29112425061E+02  0.00000000000E+00 0. -1.
       -2   -1    0    0    0  501  0.00000000000E+00  0.00000000000E+00 -0.59600913664E+02  0.59600913664E+02  0.00000000000E+00 0.  1.
      -24    2    1    2    0    0  0.00000000000E+00  0.00000000000E+00 -0.30488488603E+02  0.88713338724E+02  0.83309714501E+02 0.  0.
       11    1    3    3    0    0  0.26863615618E+02 -0.30324846969E+02 -0.25561703300E+02  0.47902514165E+02  0.00000000000E+00 0. -1.
      -12    1    3    3    0    0 -0.26863615618E+02  0.30324846969E+02 -0.49267853034E+01  0.40810824559E+02  0.00000000000E+00 0.  1.
</event>
<event>
 6   2  0.6181100E+00  0.8455807E+02  0.7957747E-01  0.1315755E+00
        1   -1    0    0  502    0  0.00000000000E+00  0.00000000000E+00  0.59646127408E+02  0.59646127408E+02  0.00000000000E+00 0. -1.
       21   -1    0    0  501  502  0.00000000000E+00  0.00000000000E+00 -0.68815739804E+03  0.68815739804E+03  0.00000000000E+00 0. -1.
      -24    2    1    2    0    0  0.11478453090E+02 -0.27112134750E+02  0.29181713878E+02  0.89451883384E+02  0.79266917942E+02 0.  0.
       11    1    3    3    0    0  0.44579765696E+02 -0.25207474389E+02  0.14779953048E+02  0.53303088904E+02  0.00000000000E+00 0. -1.
      -12    1    3    3    0    0 -0.33101312606E+02 -0.19046603615E+01  0.14401760830E+02  0.36148794480E+02  0.00000000000E+00 0.  1.
        2    1    1    2  501    0 -0.11478453090E+02  0.27112134750E+02 -0.65769298451E+03  0.65835164206E+03  0.00000000000E+00 0. -1.
</event>
<event>
 5   1  0.6181100E+00  0.7968481E+02  0.7957747E-01  0.1328414E+00
       -2   -1    0    0    0  501  0.00000000000E+00  0.00000000000E+00  0.10125915867E+04  0.10125915867E+04  0.00000000000E+00 0.  1.
        1   -1    0    0  501    0  0.00000000000E+00  0.00000000000E+00 -0.15676776347E+01  0.15676776347E+01  0.00000000000E+00 0. -1.
      -24    2    1    2    0    0  0.00000000000E+00  0.00000000000E+00  0.10110239090E+04  0.10141592643E+04  0.79684808678E+02 0.  0.
       11    1    3    3    0    0 -0.12063572058E+02 -0.12190459311E+01  0.22483865723E+02  0.25544863703E+02  0.00000000000E+00 0. -1.
      -12    1    3    3    0    0  0.12063572058E+02  0.12190459311E+01  0.98854004330E+03  0.98861440059E+03  0.00000000000E+00 0.  1.
</event>
<event>
 4   3  0.6181100E+00  0.1895258E+03  0.7957747E-01  0.1164822E+00
       21   -1    0    0  503  502  0.00000000000E+00  0.00000000000E+00  0.14952200827E+03  0.14952200827E+03  0.00000000000E+00 0.  1.
       21   -1    0    0  501  503  0.00000000000E+00  0.00000000000E+00 -0.52681943062E+03  0.52681943062E+03  0.00000000000E+00 0.  1.
        6    1    1    2  501    0  0.68142523133E+02 -0.36710019633E+02 -0.43806992309E+03  0.47731047183E+03  0.17300000000E+03 0.  1.
       -6    1    1    2    0  502 -0.68142523133E+02  0.36710019633E+02  0.60772500743E+02  0.19903096706E+03  0.17300000000E+03 0.  1.
</event>
<event>
 4   3  0.6181100E+00  0.2275108E+03  0.7957747E-01  0.1135345E+00
       21   -1    0    0  501  502  0.00000000000E+00  0.00000000000E+00  0.11277241613E+03  0.11277241613E+03  0.00000000000E+00 0.  1.
       21   -1    0    0  502  503  0.00000000000E+00  0.00000000000E+00 -0.73354250560E+03  0.73354250560E+03  0.00000000000E+00 0.  1.
        6    1    1    2  501    0 -0.93359292221E+02 -0.11452605219E+03 -0.51501927309E+02  0.23326727715E+03  0.17300000000E+03 0.  1.
       -6    1    1    2    0  503  0.93359292221E+02  0.11452605219E+03 -0.56926816216E+03  0.61304764458E+03  0.17300000000E+03 0.  1.
</event>
<event>
 5   1  0.6181100E+00  0.8384015E+02  0.7957747E-01  0.1317558E+00
        1   -1    0    0  501    0  0.00000000000E+00  0.00000000000E+00  0.63980669408E+02  0.63980669408E+02  0.00000000000E+00 0. -1.
       -2   -1    0    0    0  501  0.00000000000E+00  0.00000000000E+00 -0.27465991714E+02  0.27465991714E+02  0.00000000000E+00 0.  1.
      -24    2    1    2    0    0  0.00000000000E+00  0.00000000000E+00  0.36514677694E+02  0.91446661122E+02  0.83840146369E+02 0.  0.
       11    1    3    3    0    0  0.28304509982E+02  0.12046797975E+02  0.49319532193E+02  0.58126473164E+02  0.00000000000E+00 0. -1.
      -12    1    3    3    0    0 -0.28304509982E+02 -0.12046797975E+02 -0.12804854498E+02  0.33320187957E+02  0.00000000000E+00 0.  1.
</event>
<event>
 6   2  0.6181100E+00  0.8864193E+02  0.7957747E-01  0.1305866E+00
       21   -1    0    0  501  502  0.00000000000E+00  0.00000000000E+00  0.38263781371E+02  0.38263781371E+02  0.00000000000E+00 0.  1.
       -4   -1    0    0    0  501  0.00000000000E+00  0.00000000000E+00 -0.27747851028E+03  0.27747851028E+03  0.00000000000E+00 0.  1.
      -24    2    1    2    0    0  0.34147396077E+02 -0.16346276165E+02 -0.25848519025E+03  0.27326175394E+03  0.80150777833E+02 0.  0.
       11    1    3    3    0    0  0.10133535827E+02 -0.43989567599E+02 -0.88162879034E+02  0.99047785666E+02  0.00000000000E+00 0. -1.
      -12    1    3    3    0    0  0.24013860250E+02  0.27643291434E+02 -0.17032231121E+03  0.17421396828E+03  0.00000000000E+00 0.  1.
       -3    1    1    2    0  502 -0.34147396077E+02  0.16346276165E+02  0.19270461343E+02  0.42480537704E+02  0.00000000000E+00 0.  1.
</event>
<event>
 6   2  0.6181100E+00  0.8066464E+02  0.7957747E-01  0.1325788E+00
       -2   -1    0    0    0  501  0.00000000000E+00  0.00000000000E+00  0.53455092010E+02  0.53455092010E+02  0.00000000000E+00 0.  1.
        1   -1    0    0  502    0  0.00000000000E+00  0.00000000000E+00 -0.48255986608E+02  0.48255986608E+02  0.00000000000E+00 0. -1.
      -24    2    1    2    0    0  0.95411423374E+00 -0.20200641944E+02 -0.62116001737E+00  0.80667035317E+02  0.78088465717E+02 0.  0.
       11    1    3    3    0    0  0.10646644853E+02  0.28802266958E+02 -0.68697236272E+00  0.30714712429E+02  0.00000000000E+00 0. -1.
      -12    1    3    3    0    0 -0.96925306193E+01 -0.49002908902E+02  0.65812345347E-01  0.49952322888E+02  0.00000000000E+00 0.  1.
       21    1    1    2  502  501 -0.95411423374E+00  0.20200641944E+02  0.58202654198E+01  0.21044043301E+02  0.00000000000E+00 0. -1.
</event>
<event>
 5   1  0.6181100E+00  0.9316711E+02  0.7957747E-01  0.1295587E+00
        3   -1    0    0  501    0  0.00000000000E+00  0.00000000000E+00  0.44267450453E+02  0.44267450453E+02  0.00000000000E+00 0. -1.
       -4   -1    0    0    0  501  0.00000000000E+00  0.00000000000E+00 -0.49020834693E+02  0.49020834693E+02  0.00000000000E+00 0.  1.
      -24    2    1    2    0    0  0.00000000000E+00  0.00000000000E+00 -0.47533842391E+01  0.93288285146E+02  0.93167105159E+02 0.  0.
       11    1    3    3    0    0  0.22330922118E+02  0.55111834633E+01  0.38185059452E+02  0.44577370841E+02  0.00000000000E+00 0. -1.
      -12    1    3    3    0    0 -0.22330922118E+02 -0.55111834633E+01 -0.42938443691E+02  0.48710914305E+02  0.00000000000E+00 0.  1.
</event>
<event>
 5   1  0.6181100E+00  0.8190609E+02  0.7957747E-01  0.1322520E+00
        3   -1    0    0  501    0  0.00000000000E+00  0.00000000000E+00  0.17960716630E+02  0.17960716630E+02  0.00000000000E+00 0. -1.
       -4   -1    0    0    0  501  0.00000000000E+00  0.00000000000E+00 -0.93378905370E+02  0.93378905370E+02  0.00000000000E+00 0.  1.
      -24    2    1    2    0    0  0.00000000000E+00  0.00000000000E+00 -0.75418188740E+02  0.11133962200E+03  0.81906093999E+02 0.  0.
       11    1    3    3    0    0 -0.13251791146E+02  0.36789369325E+02 -0.21167088359E+02  0.44464742139E+02  0.00000000000E+00 0. -1.
      -12    1    3    3    0    0  0.13251791146E+02 -0.36789369325E+02 -0.54251100380E+02  0.66874879860E+02  0.00000000000E+00 0.  1.
</event>
<event>
 6   2  0.6181100E+00  0.8413260E+02  0.7957747E-01  0.1316821E+00
       21   -1    0    0  501  502  0.00000000000E+00  0.00000000000E+00  0.18390033417E+03  0.18390033417E+03  0.00000000000E+00 0. -1.
       -2   -1    0    0    0  501  0.00000000000E+00  0.00000000000E+00 -0.21566435899E+02  0.21566435899E+02  0.00000000000E+00 0.  1.
      -24    2    1    2    0    0 -0.80483804849E+01 -0.24117671876E+02  0.15891634612E+03  0.17981295577E+03  0.80198849583E+02 0.  0.
       11    1    3    3    0    0 -0.35366924221E+02 -0.37095670218E+02  0.77062090024E+02  0.92549844930E+02  0.00000000000E+00 0. -1.
      -12    1    3    3    0    0  0.27318543737E+02  0.12977998341E+02  0.81854256096E+02  0.87263110843E+02  0.00000000000E+00 0.  1.
       -1    1    1    2    0  502  0.80483804849E+01  0.24117671876E+02  0.34175521495E+01  0.25653814294E+02  0.00000000000E+00 0.  1.
</event>
<event>
 5   1  0.6181100E+00  0.7964227E+02  0.7957747E-01  0.1328529E+00
        3   -1    0    0  501    0  0.00000000000E+00  0.00000000000E+00  0.23925195681E+02  0.23925195681E+02  0.00000000000E+00 0. -1.
       -4   -1    0    0    0  501  0.00000000000E+00  0.00000000000E+00 -0.66278355747E+02  0.66278355747E+02  0.00000000000E+00 0.  1.
      -24    2    1    2    0    0  0.00000000000E+00  0.00000000000E+00 -0.42353160066E+02  0.90203551428E+02  0.79642265931E+02 0.  0.
       11    1    3    3    0    0  0.20597851320E+02  0.34001976097E+02 -0.18564995457E+02  0.43875561692E+02  0.00000000000E+00 0. -1.
      -12    1    3    3    0    0 -0.20597851320E+02 -0.34001976097E+02 -0.23788164609E+02  0.46327989735E+02  0.00000000000E+00 0.  1.
</event>
<event>
 5   1  0.6181100E+00  0.8087094E+02  0.7957747E-01  0.1325240E+00
       -4   -1    0    0    0  501  0.00000000000E+00  0.00000000000E+00  0.14508083482E+02  0.14508083482E+02  0.00000000000E+00 0.  1.
        3   -1    0    0  501    0  0.00000000000E+00  0.00000000000E+00 -0.11269766881E+03  0.11269766881E+03  0.00000000000E+00 0. -1.
      -24    2    1    2    0    0  0.00000000000E+00  0.00000000000E+00 -0.98189585326E+02  0.12720575229E+03  0.80870938843E+02 0.  0.
       11    1    3    3    0    0 -0.36287622353E+02  0.29057770904E+01 -0.21409479357E+02  0.42232699214E+02  0.00000000000E+00 0. -1.
      -12    1    3    3    0    0  0.36287622353E+02 -0.29057770904E+01 -0.76780105969E+02  0.84973053077E+02  0.00000000000E+00 0.  1.
</event>
<event>
 4   1  0.6181100E+00  0.2061281E+03  0.7957747E-01  0.1151084E+00
        3   -1    0    0  501    0  0.00000000000E+00  0.00000000000E+00  0.12763670067E+03  0.12763670067E+03  0.00000000000E+00 0. -1.
       -4   -1    0    0    0  501  0.00000000000E+00  0.00000000000E+00 -0.83222142177E+02  0.83222142177E+02  0.00000000000E+00 0.  1.
       11    1    1    2    0    0  0.67545951296E+02  0.28946593595E+02  0.96128022513E+02  0.12099982450E+03  0.00000000000E+00 0. -1.
      -12    1    1    2    0    0 -0.67545951296E+02 -0.28946593595E+02 -0.51713464019E+02  0.89859018346E+02  0.00000000000E+00 0.  1.
</event>
<event>
 4   3  0.6181100E+00  0.2320185E+03  0.7957747E-01  0.1132268E+00
       21   -1    0    0  501  502  0.00000000000E+00  0.00000000000E+00  0.67800832051E+03  0.67800832051E+03  0.00000000000E+00 0. -1.
       21   -1    0    0  502  503  0.00000000000E+00  0.00000000000E+00 -0.84043688088E+02  0.84043688088E+02  0.00000000000E+00 0. -1.
        6    1    1    2  501    0  0.11709748904E+02 -0.15416371361E+03  0.20739992214E+03  0.31120298282E+03  0.17300000000E+03 0. -1.
       -6    1    1    2    0  503 -0.11709748904E+02  0.15416371361E+03  0.38656471028E+03  0.45084902578E+03  0.17300000000E+03 0. -1.
</event>
<event>
 5   1  0.6181100E+00  0.9068997E+02  0.7957747E-01  0.1301130E+00
        1   -1    0    0  501    0  0.00000000000E+00  0.00000000000E+00  0.30412221171E+02  0.30412221171E+02  0.00000000000E+00 0. -1.
       -2   -1    0    0    0  501  0.00000000000E+00  0.00000000000E+00 -0.67609911649E+02  0.67609911649E+02  0.00000000000E+00 0.  1.
      -24    2    1    2    0    0  0.00000000000E+00  0.00000000000E+00 -0.37197690478E+02  0.98022132821E+02  0.90689968276E+02 0.  0.
       11    1    3    3    0    0 -0.65574416720E+01  0.43256841430E+02 -0.57184474055E+01  0.44123179991E+02  0.00000000000E+00 0. -1.
      -12    1    3    3    0    0  0.65574416720E+01 -0.43256841430E+02 -0.31479243072E+02  0.53898952830E+02  0.00000000000E+00 0.  1.
</event>
<event>
 5   1  0.6181100E+00  0.8056496E+02  0.7957747E-01  0.1326053E+00
       -2   -1    0    0    0  501  0.00000000000E+00  0.00000000000E+00  0.45100413966E+02  0.45100413966E+02  0.00000000000E+00 0.  1.
        1   -1    0    0  501    0  0.00000000000E+00  0.00000000000E+00 -0.35979231295E+02  0.35979231295E+02  0.00000000000E+00 0. -1.
      -24    2    1    2    0    0  0.00000000000E+00  0.00000000000E+00  0.91211826703E+01  0.81079645261E+02  0.80564960761E+02 0.  0.
       11    1    3    3    0    0 -0.16791184717E+01  0.30208790474E+02 -0.22204190807E+02  0.37528876218E+02  0.00000000000E+00 0. -1.
      -12    1    3    3    0    0  0.16791184717E+01 -0.30208790474E+02  0.31325373477E+02  0.43550769043E+02  0.00000000000E+00 0.  1.
</event>
<event>
 5   1  0.6181100E+00  0.8432328E+02  0.7957747E-01  0.1316342E+00
        1   -1    0    0  501    0  0.00000000000E+00  0.00000000000E+00  0.33969156937E+02  0.33969156937E+02  0.00000000000E+00 0. -1.
       -2   -1    0    0    0  501  0.00000000000E+00  0.00000000000E+00 -0.52329942267E+02  0.52329942267E+02  0.00000000000E+00 0.  1.
      -24    2    1    2    0    0  0.00000000000E+00  0.00000000000E+00 -0.18360785330E+02  0.86299099204E+02  0.84323283175E+02 0.  0.
       11    1    3    3    0    0  0.19098593592E+02  0.77172937085E+01  0.28468687598E+02  0.35139423344E+02  0.00000000000E+00 0. -1.
      -12    1    3    3    0    0 -0.19098593592E+02 -0.77172937085E+01 -0.46829472928E+02  0.51159675860E+02  0.00000000000E+00 0.  1.
</event>
<event>
 5   1  0.6181100E+00  0.8022044E+02  0.7957747E-01  0.1326973E+00
        1   -1    0    0  501    0  0.00000000000E+00  0.00000000000E+00  0.36665608300E+03  0.36665608300E+03  0.00000000000E+00 0. -1.
       -2   -1    0    0    0  501  0.00000000000E+00  0.00000000000E+00 -0.43878443922E+01  0.43878443922E+01  0.00000000000E+00 0.  1.
      -24    2    1    2    0    0  0.00000000000E+00  0.00000000000E+00  0.36226823861E+03  0.37104392740E+03  0.80220442225E+02 0.  0.
       11    1    3    3    0    0 -0.21106448299E+02  0.26419336442E+02  0.81355437955E+02  0.88103182591E+02  0.00000000000E+00 0. -1.
      -12    1    3    3    0    0  0.21106448299E+02 -0.26419336442E+02  0.28091280066E+03  0.28294074480E+03  0.00000000000E+00 0.  1.
</event>
<event>
 5   1  0.6181100E+00  0.8699030E+02  0.7957747E-01  0.1309791E+00
       -2   -1    0    0    0  501  0.00000000000E+00  0.00000000000E+00  0.14163814352E+03  0.14163814352E+03  0.00000000000E+00 0.  1.
        1   -1    0    0  501    0  0.00000000000E+00  0.00000000000E+00 -0.13356770267E+02  0.13356770267E+02  0.00000000000E+00 0. -1.
      -24    2    1    2    0    0  0.00000000000E+00  0.00000000000E+00  0.12828137325E+03  0.15499491379E+03  0.86990301622E+02 0.  0.
       11    1    3    3    0    0  0.40526398463E+02  0.12960570472E+02  0.48059198436E+02  0.64187630535E+02  0.00000000000E+00 0. -1.
      -12    1    3    3    0    0 -0.40526398463E+02 -0.12960570472E+02  0.80222174817E+02  0.90807283252E+02  0.00000000000E+00 0.  1.
</event>
<event>
 6   2  0.6181100E+00  0.8722611E+02  0.7957747E-01  0.1309225E+00
        3   -1    0    0  502    0  0.00000000000E+00  0.00000000000E+00  0.55102405905E+02  0.55102405905E+02  0.00000000000E+00 0. -1.
       21   -1    0    0  501  502  0.00000000000E+00  0.00000000000E+00 -0.70514287935E+02  0.70514287935E+02  0.00000000000E+00 0.  1.
      -24    2    1    2    0    0 -0.37192149423E+02  0.15640015739E+01 -0.14180838417E+02  0.88371324356E+02  0.78884045983E+02 0.  0.
       11    1    3    3    0    0  0.83182484882E+01 -0.29297394369E+02  0.33930869329E+01  0.30643818523E+02  0.00000000000E+00 0. -1.
      -12    1    3    3    0    0 -0.45510397911E+02  0.30861395943E+02 -0.17573925350E+02  0.57727505834E+02  0.00000000000E+00 0.  1.
        4    1    1    2  501    0  0.37192149423E+02 -0.15640015739E+01 -0.12310436137E+01  0.37245369484E+02  0.00000000000E+00 0. -1.
</event>
<event>
 6   2  0.6181100E+00  0.8362393E+02  0.7957747E-01  0.1318105E+00
       -4   -1    0    0    0  501  0.00000000000E+00  0.00000000000E+00  0.47968857640E+02  0.47968857640E+02  0.00000000000E+00 0.  1.
        3   -1    0    0  502    0  0.00000000000E+00  0.00000000000E+00 -0.14517019369E+03  0.14517019369E+03  0.00000000000E+00 0. -1.
      -24    2    1    2    0    0  0.11944116210E+02 -0.16191793557E+02 -0.13005146000E+03  0.15461676254E+03  0.81167265082E+02 0.  0.
       11    1    3    3    0    0  0.21895054667E+02  0.28603979665E+01 -0.13124476918E+03  0.13308931112E+03  0.00000000000E+00 0. -1.
      -12    1    3    3    0    0 -0.99509384579E+01 -0.19052191523E+02  0.11933091867E+01  0.21527451425E+02  0.00000000000E+00 0.  1.
       21    1    1    2  502  501 -0.11944116210E+02  0.16191793557E+02  0.32850123944E+02  0.38522288792E+02  0.00000000000E+00 0. -1.
</event>
<event>
 5   1  0.6181100E+00  0.8350119E+02  0.7957747E-01  0.1318417E+00
       -4   -1    0    0    0  501  0.00000000000E+00  0.00000000000E+00  0.10644821000E+03  0.10644821000E+03  0.00000000000E+00 0.  1.
        3   -1    0    0  501    0  0.00000000000E+00  0.00000000000E+00 -0.16375213413E+02  0.16375213413E+02  0.00000000000E+00 0. -1.
      -24    2    1    2    0    0  0.00000000000E+00  0.00000000000E+00  0.90072996587E+02  0.12282342341E+03  0.83501189361E+02 0.  0.
       11    1    3    3    0    0 -0.29850816117E+02 -0.25959795947E+02  0.64668156421E+02  0.75808658367E+02  0.00000000000E+00 0. -1.
      -12    1    3    3    0    0  0.29850816117E+02  0.25959795947E+02  0.25404840167E+02  0.47014765047E+02  0.00000000000E+00 0.  1.
</event>
<event>
 5   1  0.6181100E+00  0.7846041E+02  0.7957747E-01  0.1331757E+00
        1   -1    0    0  501    0  0.00000000000E+00  0.00000000000E+00  0.12873323898E+02  0.12873323898E+02  0.00000000000E+00 0. -1.
       -2   -1    0    0    0  501  0.00000000000E+00  0.00000000000E+00 -0.11955023045E+03  0.11955023045E+03  0.00000000000E+00 0.  1.
      -24    2    1    2    0    0  0.00000000000E+00  0.00000000000E+00 -0.10667690655E+03  0.13242355434E+03  0.78460406284E+02 0.  0.
       11    1    3    3    0    0  0.28264862535E+02  0.27181750929E+02 -0.51444831649E+02  0.64686325766E+02  0.00000000000E+00 0. -1.
      -12    1    3    3    0    0 -0.28264862535E+02 -0.27181750929E+02 -0.55232074899E+02  0.67737228577E+02  0.00000000000E+00 0.  1.
</event>
<event>
 4   3  0.6181100E+00  0.1820021E+03  0.7957747E-01  0.1171568E+00
       21   -1    0    0  503  502  0.00000000000E+00  0.00000000000E+00  0.59392758347E+03  0.59392758347E+03  0.00000000000E+00 0. -1.
       21   -1    0    0  501  503  0.00000000000E+00  0.00000000000E+00 -0.62667641130E+02  0.62667641130E+02  0.00000000000E+00 0. -1.
        6    1    1    2  501    0  0.83326568768E+01 -0.55913483467E+02  0.15673153949E+03  0.24018644066E+03  0.17300000000E+03 0. -1.
       -6    1    1    2    0  502 -0.83326568768E+01  0.55913483467E+02  0.37452840285E+03  0.41640878394E+03  0.17300000000E+03 0. -1.
</event>
<event>
 5   1  0.6181100E+00  0.7945858E+02  0.7957747E-01  0.1329027E+00
        1   -1    0    0  501    0  0.00000000000E+00  0.00000000000E+00  0.28564097097E+03  0.28564097097E+03  0.00000000000E+00 0. -1.
       -2   -1    0    0    0  501  0.00000000000E+00  0.00000000000E+00 -0.55258752669E+01  0.55258752669E+01  0.00000000000E+00 0.  1.
      -24    2    1    2    0    0  0.00000000000E+00  0.00000000000E+00  0.28011509570E+03  0.29116684623E+03  0.79458577301E+02 0.  0.
       11    1    3    3    0    0  0.20722311108E+02  0.33745888313E+02  0.15177053134E+03  0.15685181969E+03  0.00000000000E+00 0. -1.
      -12    1    3    3    0    0 -0.20722311108E+02 -0.33745888313E+02  0.12834456436E+03  0.13431502654E+03  0.00000000000E+00 0.  1.
</event>
<event>
 5   1  0.6181100E+00  0.8006383E+02  0.7957747E-01  0.1327393E+00
       -4   -1    0    0    0  501  0.00000000000E+00  0.00000000000E+00  0.35589040973E+03  0.35589040973E+03  0.00000000000E+00 0.  1.
        3   -1    0    0  501    0  0.00000000000E+00  0.00000000000E+00 -0.45029425704E+01  0.45029425704E+01  0.00000000000E+00 0. -1.
      -24    2    1    2    0    0  0.00000000000E+00  0.00000000000E+00  0.35138746716E+03  0.36039335230E+03  0.80063826448E+02 0.  0.
       11    1    3    3    0    0  0.32203888758E+01 -0.16614811248E+02  0.12392289707E+02  0.20975979155E+02  0.00000000000E+00 0. -1.
      -12    1    3    3    0    0 -0.32203888758E+01  0.16614811248E+02  0.33899517745E+03  0.33941737315E+03  0.00000000000E+00 0.  1.
</event>
<event>
 5   1  0.6181100E+00  0.9261694E+02  0.7957747E-01  0.1296802E+00
        3   -1    0    0  501    0  0.00000000000E+00  0.00000000000E+00  0.34888605904E+02  0.34888605904E+02  0.00000000000E+00 0. -1.
       -4   -1    0    0    0  501  0.00000000000E+00  0.00000000000E+00 -0.61466329493E+02  0.61466329493E+02  0.00000000000E+00 0.  1.
      -24    2    1    2    0    0  0.00000000000E+00  0.00000000000E+00 -0.26577723588E+02  0.96354935397E+02  0.92616943289E+02 0.  0.
       11    1    3    3    0    0 -0.14112222321E+02 -0.43446339092E+02 -0.53838156392E+01  0.45997007187E+02  0.00000000000E+00 0. -1.
      -12    1    3    3    0    0  0.14112222321E+02  0.43446339092E+02 -0.21193907949E+02  0.50357928209E+02  0.00000000000E+00 0.  1.
</event>
<event>
 5   1  0.6181100E+00  0.7945811E+02  0.7957747E-01  0.1329028E+00
       -2   -1    0    0    0  501  0.00000000000E+00  0.00000000000E+00  0.35678484966E+02  0.35678484966E+02  0.00000000000E+00 0.  1.
        1   -1    0    0  501    0  0.00000000000E+00  0.00000000000E+00 -0.44239482169E+02  0.44239482169E+02  0.00000000000E+00 0. -1.
      -24    2    1    2    0    0  0.00000000000E+00  0.00000000000E+00 -0.85609972025E+01  0.79917967135E+02  0.79458107188E+02 0.  0.
       11    1    3    3    0    0 -0.36346652691E+02 -0.39745744443E+01 -0.19911396555E+02  0.41633401454E+02  0.00000000000E+00 0. -1.
      -12    1    3    3    0    0  0.36346652691E+02  0.39745744443E+01  0.11350399352E+02  0.38284565680E+02  0.00000000000E+00 0.  1.
</event>
<event>
 5   1  0.6181100E+00  0.8041702E+02  0.7957747E-01  0.1326448E+00
       -2   -1    0    0    0  501  0.00000000000E+00  0.00000000000E+00  0.14800192534E+02  0.14800192534E+02  0.00000000000E+00 0.  1.
        1   -1    0    0  501    0  0.00000000000E+00  0.00000000000E+00 -0.10923670205E+03  0.10923670205E+03  0.00000000000E+00 0. -1.
      -24    2    1    2    0    0  0.00000000000E+00  0.00000000000E+00 -0.94436509511E+02  0.12403689458E+03  0.80417018648E+02 0.  0.
       11    1    3    3    0    0 -0.33221021270E+02  0.57146089677E+01 -0.81026180330E+02  0.87758389393E+02  0.00000000000E+00 0. -1.
      -12    1    3    3    0    0  0.33221021270E+02 -0.57146089677E+01 -0.13410329181E+02  0.36278505187E+02  0.00000000000E+00 0.  1.
</event>
<event>
 5   1  0.6181100E+00  0.7781316E+02  0.7957747E-01  0.1333552E+00
        3   -1    0    0  501    0  0.00000000000E+00  0.00000000000E+00  0.78249281662E+02  0.78249281662E+02  0.00000000000E+00 0. -1.
       -4   -1    0    0    0  501  0.00000000000E+00  0.00000000000E+00 -0.19344868536E+02  0.19344868536E+02  0.00000000000E+00 0.  1.
      -24    2    1    2    0    0  0.00000000000E+00  0.00000000000E+00  0.58904413125E+02  0.97594150198E+02  0.77813162557E+02 0.  0.
       11    1    3    3    0    0 -0.35092115223E+02 -0.80034570590E+01  0.47979340233E+02  0.59979404506E+02  0.00000000000E+00 0. -1.
      -12    1    3    3    0    0  0.35092115223E+02  0.80034570590E+01  0.10925072893E+02  0.37614745692E+02  0.00000000000E+00 0.  1.
</event>
<event>
 5   1  0.6181100E+00  0.7953333E+02  0.7957747E-01  0.1328824E+00
       -4   -1    0    0    0  501  0.00000000000E+00  0.00000000000E+00  0.80031411953E+02  0.80031411953E+02  0.00000000000E+00 0.  1.
        3   -1    0    0  501    0  0.00000000000E+00  0.00000000000E+00 -0.19759585045E+02  0.19759585045E+02  0.00000000000E+00 0. -1.
      -24    2    1    2    0    0  0.00000000000E+00  0.00000000000E+00  0.60271826908E+02  0.99790996998E+02  0.79533326116E+02 0.  0.
       11    1    3    3    0    0 -0.30540687075E+02  0.16566434596E+02  0.58643211895E+01  0.35235927478E+02  0.00000000000E+00 0. -1.
      -12    1    3    3    0    0  0.30540687075E+02 -0.16566434596E+02  0.54407505719E+02  0.64555069520E+02  0.00000000000E+00 0.  1.
</event>
<event>
 5   1  0.6181100E+00  0.8182398E+02  0.7957747E-01  0.1322734E+00
       -4   -1    0    0    0  501  0.00000000000E+00  0.00000000000E+00  0.71830578351E+02  0.71830578351E+02  0.00000000000E+00 0.  1.
        3   -1    0    0  501    0  0.00000000000E+00  0.00000000000E+00 -0.23301925994E+02  0.23301925994E+02  0.00000000000E+00 0. -1.
      -24    2    1    2    0    0  0.00000000000E+00  0.00000000000E+00  0.48528652356E+02  0.95132504345E+02  0.81823977436E+02 0.  0.
       11    1    3    3    0    0  0.28983828293E+02  0.17467127186E+02 -0.24671793328E+01  0.33930072332E+02  0.00000000000E+00 0. -1.
      -12    1    3    3    0    0 -0.28983828293E+02 -0.17467127186E+02  0.50995831689E+02  0.61202432013E+02  0.00000000000E+00 0.  1.
</event>
<event>
 5   1  0.6181100E+00  0.7997213E+02  0.7957747E-01  0.1327640E+00
       -2   -1    0    0    0  501  0.00000000000E+00  0.00000000000E+00  0.66043626852E+02  0.66043626852E+02  0.00000000000E+00 0.  1.
        1   -1    0    0  501    0  0.00000000000E+00  0.00000000000E+00 -0.24209535297E+02  0.24209535297E+02  0.00000000000E+00 0. -1.
      -24    2    1    2    0    0  0.00000000000E+00  0.00000000000E+00  0.41834091555E+02  0.90253162149E+02  0.79972133032E+02 0.  0.
       11    1    3    3    0    0 -0.33062641019E+02  0.53176263975E+01 -0.37431688909E+01  0.33696093171E+02  0.00000000000E+00 0. -1.
      -12    1    3    3    0    0  0.33062641019E+02 -0.53176263975E+01  0.45577260445E+02  0.56557068978E+02  0.00000000000E+00 0.  1.
</event>
<event>
 5   1  0.6181100E+00  0.7760859E+02  0.7957747E-01  0.1334123E+00
       -2   -1    0    0    0  501  0.00000000000E+00  0.00000000000E+00  0.12680949161E+02  0.12680949161E+02  0.00000000000E+00 0.  1.
        1   -1    0    0  501    0  0.00000000000E+00  0.00000000000E+00 -0.11874293483E+03  0.11874293483E+03  0.00000000000E+00 0. -1.
      -24    2    1    2    0    0  0.00000000000E+00  0.00000000000E+00 -0.10606198567E+03  0.13142388399E+03  0.77608585089E+02 0.  0.
       11    1    3    3    0    0  0.36719052104E+02 -0.63391842169E+00 -0.74255049992E+02  0.82840226275E+02  0.00000000000E+00 0. -1.
      -12    1    3    3    0    0 -0.36719052104E+02  0.63391842169E+00 -0.31806935677E+02  0.48583657717E+02  0.00000000000E+00 0.  1.
</event>
<event>
 5   1  0.6181100E+00  0.8148716E+02  0.7957747E-01  0.1323616E+00
        1   -1    0    0  501    0  0.00000000000E+00  0.00000000000E+00  0.36573613803E+02  0.36573613803E+02  0.00000000000E+00 0. -1.
       -2   -1    0    0    0  501  0.00000000000E+00  0.00000000000E+00 -0.45388991459E+02  0.45388991459E+02  0.00000000000E+00 0.  1.
      -24    2    1    2    0    0  0.00000000000E+00  0.00000000000E+00 -0.88153776562E+01  0.81962605262E+02  0.81487163272E+02 0.  0.
       11    1    3    3    0    0  0.29474859352E+02 -0.28071098917E+02 -0.62308638823E+01  0.41177391769E+02  0.00000000000E+00 0. -1.
      -12    1    3    3    0    0 -0.29474859352E+02  0.28071098917E+02 -0.25845137739E+01  0.40785213493E+02  0.00000000000E+00 0.  1.
</event>
<event>
 5   1  0.6181100E+00  0.8007931E+02  0.7957747E-01  0.1327352E+00
       -2   -1    0    0    0  501  0.00000000000E+00  0.00000000000E+00  0.10155089041E+03  0.10155089041E+03  0.00000000000E+00 0.  1.
        1   -1    0    0  501    0  0.00000000000E+00  0.00000000000E+00 -0.15786900827E+02  0.15786900827E+02  0.00000000000E+00 0. -1.
      -24    2    1    2    0    0  0.00000000000E+00  0.00000000000E+00  0.85763989579E+02  0.11733779123E+03  0.80079306585E+02 0.  0.
       11    1    3    3    0    0 -0.11028492112E+01  0.21777943172E+02 -0.63231261240E+01  0.22704118771E+02  0.00000000000E+00 0. -1.
      -12    1    3    3    0    0  0.11028492112E+01 -0.21777943172E+02  0.92087115703E+02  0.94633672462E+02  0.00000000000E+00 0.  1.
</event>
<event>
 5   1  0.6181100E+00  0.7785577E+02  0.7957747E-01  0.1333433E+00
        3   -1    0    0  501    0  0.00000000000E+00  0.00000000000E+00  0.10013215828E+03  0.10013215828E+03  0.00000000000E+00 0. -1.
       -4   -1    0    0    0  501  0.00000000000E+00  0.00000000000E+00 -0.15133800346E+02  0.15133800346E+02  0.00000000000E+00 0.  1.
      -24    2    1    2    0    0  0.00000000000E+00  0.00000000000E+00  0.84998357932E+02  0.11526595862E+03  0.77855766431E+02 0.  0.
       11    1    3    3    0    0 -0.21563893630E+02  0.24597717645E+02  0.73742103701E+02  0.80671848126E+02  0.00000000000E+00 0. -1.
      -12    1    3    3    0    0  0.21563893630E+02 -0.24597717645E+02  0.11256254231E+02  0.34594110498E+02  0.00000000000E+00 0.  1.
</event>
<event>
 5   1  0.6181100E+00  0.8112627E+02  0.7957747E-01  0.1324565E+00
       -4   -1    0    0    0  501  0.00000000000E+00  0.00000000000E+00  0.18043425600E+03  0.18043425600E+03  0.00000000000E+00 0.  1.
        3   -1    0    0  501    0  0.00000000000E+00  0.00000000000E+00 -0.91189332594E+01  0.91189332594E+01  0.00000000000E+00 0. -1.
      -24    2    1    2    0    0  0.00000000000E+00  0.00000000000E+00  0.17131532274E+03  0.18955318926E+03  0.81126270422E+02 0.  0.
       11    1    3    3    0    0 -0.94826835857E+01 -0.98942818261E+01 -0.35457147682E+01  0.14155924345E+02  0.00000000000E+00 0. -1.
      -12    1    3    3    0    0  0.94826835857E+01  0.98942818261E+01  0.17486103751E+03  0.17539726491E+03  0.00000000000E+00 0.  1.
</event>
<event>
 5   1  0.6181100E+00  0.8163910E+02  0.7957747E-01  0.1323218E+00
        3   -1    0    0  501    0  0.00000000000E+00  0.00000000000E+00  0.28062644107E+02  0.28062644107E+02  0.00000000000E+00 0. -1.
       -4   -1    0    0    0  501  0.00000000000E+00  0.00000000000E+00 -0.59375579699E+02  0.59375579699E+02  0.00000000000E+00 0.  1.
      -24    2    1    2    0    0  0.00000000000E+00  0.00000000000E+00 -0.31312935591E+02  0.87438223806E+02  0.81639102439E+02 0.  0.
       11    1    3    3    0    0 -0.24141447554E+02 -0.20991647807E+02  0.11497498072E+02  0.33994870636E+02  0.00000000000E+00 0. -1.
      -12    1    3    3    0    0  0.24141447554E+02  0.20991647807E+02 -0.42810433663E+02  0.53443353170E+02  0.00000000000E+00 0.  1.
</event>
<event>
 6   2  0.6181100E+00  0.8699972E+02  0.7957747E-01  0.1309769E+00
       -4   -1    0    0    0  501  0.00000000000E+00  0.00000000000E+00  0.14106690751E+03  0.14106690751E+03  0.00000000000E+00 0.  1.
        3   -1    0    0  502    0  0.00000000000E+00  0.00000000000E+00 -0.26158946059E+02  0.26158946059E+02  0.00000000000E+00 0. -1.
      -24    2    1    2    0    0  0.17713394461E+02  0.21680146025E+02  0.60282237108E+02  0.10584374840E+03  0.82372069840E+02 0.  0.
       11    1    3    3    0    0 -0.24264511068E+02  0.31072088568E+02  0.12067561840E+02  0.41229446202E+02  0.00000000000E+00 0. -1.
      -12    1    3    3    0    0  0.41977905529E+02 -0.93919425433E+01  0.48214675268E+02  0.64614302198E+02  0.00000000000E+00 0.  1.
       21    1    1    2  502  501 -0.17713394461E+02 -0.21680146025E+02  0.54625724341E+02  0.61382105167E+02  0.00000000000E+00 0.  1.
</event>
<event>
 5   1  0.6181100E+00  0.7907375E+02  0.7957747E-01  0.1330074E+00
        1   -1    0    0  501    0  0.00000000000E+00  0.00000000000E+00  0.84415117974E+01  0.84415117974E+01  0.00000000000E+00 0. -1.
       -2   -1    0    0    0  501  0.00000000000E+00  0.00000000000E+00 -0.18517588189E+03  0.18517588189E+03  0.00000000000E+00 0.  1.
      -24    2    1    2    0    0  0.00000000000E+00  0.00000000000E+00 -0.17673437009E+03  0.19361739369E+03  0.79073747643E+02 0.  0.
       11    1    3    3    0    0 -0.51298346566E+01 -0.16889870354E+02 -0.17425118370E+01  0.17737510301E+02  0.00000000000E+00 0. -1.
      -12    1    3    3    0    0  0.51298346566E+01  0.16889870354E+02 -0.17499185826E+03  0.17587988339E+03  0.00000000000E+00 0.  1.
</event>
<event>
 6   2  0.6181100E+00  0.8886560E+02  0.7957747E-01  0.1305342E+00
       21   -1    0    0  501  502  0.00000000000E+00  0.00000000000E+00  0.12319999784E+02  0.12319999784E+02  0.00000000000E+00 0. -1.
        3   -1    0    0  502    0  0.00000000000E+00  0.00000000000E+00 -0.38818573115E+03  0.38818573115E+03  0.00000000000E+00 0. -1.
      -24    2    1    2    0    0  0.41112954413E+02 -0.56273744712E+01 -0.18573617235E+03  0.20590051113E+03  0.78582137917E+02 0.  0.
       11    1    3    3    0    0  0.49362253105E+02 -0.32260749232E+02 -0.10420013115E+03  0.11972909130E+03  0.00000000000E+00 0. -1.
      -12    1    3    3    0    0 -0.82492986920E+01  0.26633374760E+02 -0.81536041204E+02  0.86171419828E+02  0.00000000000E+00 0.  1.
        4    1    1    2  501    0 -0.41112954413E+02  0.56273744712E+01 -0.19012955901E+03  0.19460521980E+03  0.00000000000E+00 0. -1.
</event>
<event>
 6   2  0.6181100E+00  0.8172132E+02  0.7957747E-01  0.1323002E+00
       21   -1    0    0  501  502  0.00000000000E+00  0.00000000000E+00  0.12467884336E+02  0.12467884336E+02  0.00000000000E+00 0.  1.
       -2   -1    0    0    0  501  0.00000000000E+00  0.00000000000E+00 -0.34818486115E+03  0.34818486115E+03  0.00000000000E+00 0.  1.
      -24    2    1    2    0    0  0.23209081759E+02  0.70947630355E+01 -0.32314938316E+03  0.33332251408E+03  0.78034463007E+02 0.  0.
       11    1    3    3    0    0 -0.12208354404E+02  0.22261794910E+02 -0.38761687903E+02  0.46336809115E+02  0.00000000000E+00 0. -1.
      -12    1    3    3    0    0  0.35417436163E+02 -0.15167031874E+02 -0.28438769525E+03  0.28698570496E+03  0.00000000000E+00 0.  1.
       -1    1    1    2    0  502 -0.23209081759E+02 -0.70947630355E+01 -0.12567593659E+02  0.27330231411E+02  0.00000000000E+00 0.  1.
</event>
<event>
 5   1  0.6181100E+00  0.8402684E+02  0.7957747E-01  0.1317087E+00
       -2   -1    0    0    0  501  0.00000000000E+00  0.00000000000E+00  0.13021801152E+03  0.13021801152E+03  0.00000000000E+00 0.  1.
        1   -1    0    0  501    0  0.00000000000E+00  0.00000000000E+00 -0.13555172277E+02  0.13555172277E+02  0.00000000000E+00 0. -1.
      -24    2    1    2    0    0  0.00000000000E+00  0.00000000000E+00  0.11666283924E+03  0.14377318379E+03  0.84026842846E+02 0.  0.
       11    1    3    3    0    0  0.36208522465E+02  0.16230121830E+02  0.34705845081E+02  0.52715933422E+02  0.00000000000E+00 0. -1.
      -12    1    3    3    0    0 -0.36208522465E+02 -0.16230121830E+02  0.81956994158E+02  0.91057250371E+02  0.00000000000E+00 0.  1.
</event>
<event>
 5   1  0.6181100E+00  0.8059993E+02  0.7957747E-01  0.1325960E+00
       -4   -1    0    0    0  501  0.00000000000E+00  0.00000000000E+00  0.10965114512E+02  0.10965114512E+02  0.00000000000E+00 0.  1.
        3   -1    0    0  501    0  0.00000000000E+00  0.00000000000E+00 -0.14811401872E+03  0.14811401872E+03  0.00000000000E+00 0. -1.
      -24    2    1    2    0    0  0.00000000000E+00  0.00000000000E+00 -0.13714890421E+03  0.15907913324E+03  0.80599929931E+02 0.  0.
       11    1    3    3    0    0 -0.34972160170E+02 -0.32793773357E+01 -0.29583199616E+02  0.45923545183E+02  0.00000000000E+00 0. -1.
      -12    1    3    3    0    0  0.34972160170E+02  0.32793773357E+01 -0.10756570460E+03  0.11315558805E+03  0.00000000000E+00 0.  1.
</event>
<event>
 6   2  0.6181100E+00  0.8832924E+02  0.7957747E-01  0.1306602E+00
       21   -1    0    0  501  502  0.00000000000E+00  0.00000000000E+00  0.81983802901E+02  0.81983802901E+02  0.00000000000E+00 0. -1.
        1   -1    0    0  502    0  0.00000000000E+00  0.00000000000E+00 -0.23973253351E+03  0.23973253351E+03  0.00000000000E+00 0. -1.
      -24    2    1    2    0    0  0.28225808636E+02 -0.18469448364E+02 -0.22760435436E+03  0.24414298425E+03  0.81634783273E+02 0.  0.
       11    1    3    3    0    0  0.38795243213E+02 -0.39952990792E+02 -0.19996762437E+03  0.20757736670E+03  0.00000000000E+00 0. -1.
      -12    1    3    3    0    0 -0.10569434577E+02  0.21483542429E+02 -0.27636729990E+02  0.36565617554E+02  0.00000000000E+00 0.  1.
        2    1    1    2  501    0 -0.28225808636E+02  0.18469448364E+02  0.69855623749E+02  0.77573352160E+02  0.00000000000E+00 0. -1.
</event>
<event>
 5   1  0.6181100E+00  0.8369611E+02  0.7957747E-01  0.1317922E+00
       -4   -1    0    0    0  501  0.00000000000E+00  0.00000000000E+00  0.20079271440E+02  0.20079271440E+02  0.00000000000E+00 0.  1.
        3   -1    0    0  501    0  0.00000000000E+00  0.00000000000E+00 -0.87217294233E+02  0.87217294233E+02  0.00000000000E+00 0. -1.
      -24    2    1    2    0    0  0.00000000000E+00  0.00000000000E+00 -0.67138022793E+02  0.10729656567E+03  0.83696110428E+02 0.  0.
       11    1    3    3    0    0 -0.37932397565E+02  0.16070554548E+02 -0.43000938343E+02  0.59550064709E+02  0.00000000000E+00 0. -1.
      -12    1    3    3    0    0  0.37932397565E+02 -0.16070554548E+02 -0.24137084450E+02  0.47746500964E+02  0.00000000000E+00 0.  1.
</event>
<event>
 4   3  0.6181100E+00  0.3181877E+03  0.7957747E-01  0.1084928E+00
       21   -1    0    0  503  502  0.00000000000E+00  0.00000000000E+00  0.29802532281E+03  0.29802532281E+03  0.00000000000E+00 0. -1.
       21   -1    0    0  501  503  0.00000000000E+00  0.00000000000E+00 -0.38892951372E+03  0.38892951372E+03  0.00000000000E+00 0.  1.
        6    1    1    2  501    0 -0.24250852246E+03 -0.11182130220E+03 -0.16763587769E+03  0.35964590166E+03  0.17300000000E+03 0.  1.
       -6    1    1    2    0  502  0.24250852246E+03  0.11182130220E+03  0.76731686779E+02  0.32730893487E+03  0.17300000000E+03 0. -1.
</event>
<event>
 6   2  0.6181100E+00  0.8372319E+02  0.7957747E-01  0.1317854E+00
       -2   -1    0    0    0  501  0.00000000000E+00  0.00000000000E+00  0.19934018083E+03  0.19934018083E+03  0.00000000000E+00 0.  1.
       21   -1    0    0  501  502  0.00000000000E+00  0.00000000000E+00 -0.16337734118E+02  0.16337734118E+02  0.00000000000E+00 0. -1.
      -24    2    1    2    0    0 -0.16301882201E+02  0.24609960912E+02  0.14646675739E+03  0.16870709280E+03  0.78346477907E+02 0.  0.
       11    1    3    3    0    0  0.32605172089E+01  0.35321592688E+02  0.20891752566E+02  0.41166870270E+02  0.00000000000E+00 0. -1.
      -12    1    3    3    0    0 -0.19562399410E+02 -0.10711631776E+02  0.12557500483E+03  0.12754022253E+03  0.00000000000E+00 0.  1.
       -1    1    1    2    0  502  0.16301882201E+02 -0.24609960912E+02  0.36535689323E+02  0.46970822153E+02  0.00000000000E+00 0.  1.
</event>
<event>
 5   1  0.6181100E+00  0.8221798E+02  0.7957747E-01  0.1321710E+00
        1   -1    0    0  501    0  0.00000000000E+00  0.00000000000E+00  0.33946856734E+02  0.33946856734E+02  0.00000000000E+00 0. -1.
       -2   -1    0    0    0  501  0.00000000000E+00  0.00000000000E+00 -0.49782196539E+02  0.49782196539E+02  0.00000000000E+00 0.  1.
      -24    2    1    2    0    0  0.00000000000E+00  0.00000000000E+00 -0.15835339805E+02  0.83729053272E+02  0.82217980850E+02 0.  0.
       11    1    3    3    0    0 -0.31014203842E+02  0.26038856512E+02 -0.71331746131E+00  0.40501996373E+02  0.00000000000E+00 0. -1.
      -12    1    3    3    0    0  0.31014203842E+02 -0.26038856512E+02 -0.15122022344E+02  0.43227056899E+02  0.00000000000E+00 0.  1.
</event>
<event>
 5   1  0.6181100E+00  0.7892625E+02  0.7957747E-01  0.1330477E+00
        1   -1    0    0  501    0  0.00000000000E+00  0.00000000000E+00  0.11727308448E+03  0.11727308448E+03  0.00000000000E+00 0. -1.
       -2   -1    0    0    0  501  0.00000000000E+00  0.00000000000E+00 -0.13279586676E+02  0.13279586676E+02  0.00000000000E+00 0.  1.
      -24    2    1    2    0    0  0.00000000000E+00  0.00000000000E+00  0.10399349781E+03  0.13055267116E+03  0.78926246336E+02 0.  0.
       11    1    3    3    0    0  0.94271752701E+01  0.20629095890E+02  0.10541468146E+03  0.10782711300E+03  0.00000000000E+00 0. -1.
      -12    1    3    3    0    0 -0.94271752701E+01 -0.20629095890E+02 -0.14211836500E+01  0.22725558162E+02  0.00000000000E+00 0.  1.
</event>
<event>
 5   1  0.6181100E+00  0.7913841E+02  0.7957747E-01  0.1329898E+00
        1   -1    0    0  501    0  0.00000000000E+00  0.00000000000E+00  0.19801710632E+03  0.19801710632E+03  0.00000000000E+00 0. -1.
       -2   -1    0    0    0  501  0.00000000000E+00  0.00000000000E+00 -0.79070038385E+01  0.79070038385E+01  0.00000000000E+00 0.  1.
      -24    2    1    2    0    0  0.00000000000E+00  0.00000000000E+00  0.19011010249E+03  0.20592411016E+03  0.79138410896E+02 0.  0.
       11    1    3    3    0    0 -0.39438148779E+02  0.26424442949E+01  0.90276909007E+02  0.98550851801E+02  0.00000000000E+00 0. -1.
      -12    1    3    3    0    0  0.39438148779E+02 -0.26424442949E+01  0.99833193479E+02  0.10737325836E+03  0.00000000000E+00 0.  1.
</event>
<event>
 5   1  0.6181100E+00  0.8059221E+02  0.7957747E-01  0.1325981E+00
        3   -1    0    0  501    0  0.00000000000E+00  0.00000000000E+00  0.12773594200E+02  0.12773594200E+02  0.00000000000E+00 0. -1.
       -4   -1    0    0    0  501  0.00000000000E+00  0.00000000000E+00 -0.12711973471E+03  0.12711973471E+03  0.00000000000E+00 0.  1.
      -24    2    1    2    0    0  0.00000000000E+00  0.00000000000E+00 -0.11434614051E+03  0.13989332891E+03  0.80592205728E+02 0.  0.
       11    1    3    3    0    0  0.53055555558E+01 -0.30882194690E+02 -0.13194266318E+02  0.33999228408E+02  0.00000000000E+00 0. -1.
      -12    1    3    3    0    0 -0.53055555558E+01  0.30882194690E+02 -0.10115187419E+03  0.10589410050E+03  0.00000000000E+00 0.  1.
</event>
<event>
 5   1  0.6181100E+00  0.6919784E+02  0.7957747E-01  0.1359510E+00
       -2   -1    0    0    0  501  0.00000000000E+00  0.00000000000E+00  0.10207991011E+04  0.10207991011E+04  0.00000000000E+00 0.  1.
        1   -1    0    0  501    0  0.00000000000E+00  0.00000000000E+00 -0.11726941362E+01  0.11726941362E+01  0.00000000000E+00 0. -1.
      -24    2    1    2    0    0  0.00000000000E+00  0.00000000000E+00  0.10196264070E+04  0.10219717952E+04  0.69197835807E+02 0.  0.
       11    1    3    3    0    0  0.48415542981E+01 -0.14676276996E+02  0.52634363187E+02  0.54856266211E+02  0.00000000000E+00 0. -1.
      -12    1    3    3    0    0 -0.48415542981E+01  0.14676276996E+02  0.96699204377E+03  0.96711552901E+03  0.00000000000E+00 0.  1.
</event>
<event>
 4   3  0.6181100E+00  0.3457574E+03  0.7957747E-01  0.1073124E+00
       21   -1    0    0  503  502  0.00000000000E+00  0.00000000000E+00  0.87619416188E+02  0.87619416188E+02  0.00000000000E+00 0.  1.
       21   -1    0    0  501  503  0.00000000000E+00  0.00000000000E+00 -0.13820944746E+04  0.13820944746E+04  0.00000000000E+00 0.  1.
        6    1    1    2  501    0  0.18512517417E+03 -0.23526125961E+03 -0.73037877051E+03  0.80808498241E+03  0.17300000000E+03 0.  1.
       -6    1    1    2    0  502 -0.18512517417E+03  0.23526125961E+03 -0.56409628793E+03  0.66162890841E+03  0.17300000000E+03 0.  1.
</event>
<event>
 5   1  0.6181100E+00  0.8073324E+02  0.7957747E-01  0.1325606E+00
       -2   -1    0    0    0  501  0.00000000000E+00  0.00000000000E+00  0.45828886003E+02  0.45828886003E+02  0.00000000000E+00 0.  1.
        1   -1    0    0  501    0  0.00000000000E+00  0.00000000000E+00 -0.35555395144E+02  0.35555395144E+02  0.00000000000E+00 0. -1.
      -24    2    1    2    0    0  0.00000000000E+00  0.00000000000E+00  0.10273490860E+02  0.81384281147E+02  0.80733243484E+02 0.  0.
       11    1    3    3    0    0  0.88661762344E+01  0.24630927442E+02 -0.25838431852E+02  0.36782009573E+02  0.00000000000E+00 0. -1.
      -12    1    3    3    0    0 -0.88661762344E+01 -0.24630927442E+02  0.36111922711E+02  0.44602271574E+02  0.00000000000E+00 0.  1.
</event>
<event>
 5   1  0.6181100E+00  0.8038704E+02  0.7957747E-01  0.1326528E+00
       -2   -1    0    0    0  501  0.00000000000E+00  0.00000000000E+00  0.36199394011E+02  0.36199394011E+02  0.00000000000E+00 0.  1.
        1   -1    0    0  501    0  0.00000000000E+00  0.00000000000E+00 -0.44628344782E+02  0.44628344782E+02  0.00000000000E+00 0. -1.
      -24    2    1    2    0    0  0.00000000000E+00  0.00000000000E+00 -0.84289507703E+01  0.80827738793E+02  0.80387039672E+02 0.  0.
       11    1    3    3    0    0  0.49685545515E+01 -0.39663615475E+02 -0.84363166882E+01  0.40854135239E+02  0.00000000000E+00 0. -1.
      -12    1    3    3    0    0 -0.49685545515E+01  0.39663615475E+02  0.73659179099E-02  0.39973603554E+02  0.00000000000E+00 0.  1.
</event>
<event>
 6   2  0.6181100E+00  0.1012303E+03  0.7957747E-01  0.1278807E+00
       21   -1    0    0  501  502  0.00000000000E+00  0.00000000000E+00  0.10280184377E+03  0.10280184377E+03  0.00000000000E+00 0.  1.
       -4   -1    0    0    0  501  0.00000000000E+00  0.00000000000E+00 -0.10300519708E+03  0.10300519708E+03  0.00000000000E+00 0.  1.
      -24    2    1    2    0    0  0.61204232687E+02 -0.31244748971E+01 -0.62054575269E+02  0.11873641377E+03  0.80571987694E+02 0.  0.
       11    1    3    3    0    0  0.38138378000E+02  0.38013354369E+02 -0.29170761757E+02  0.61241197967E+02  0.00000000000E+00 0. -1.
      -12    1    3    3    0    0  0.23065854687E+02 -0.41137829266E+02 -0.32883813512E+02  0.57495215803E+02  0.00000000000E+00 0.  1.
       -3    1    1    2    0  502 -0.61204232687E+02  0.31244748971E+01  0.61851221956E+02  0.87070627077E+02  0.00000000000E+00 0.  1.
</event>
<event>
 4   3  0.6181100E+00  0.2581245E+03  0.7957747E-01  0.1115830E+00
       21   -1    0    0  503  502  0.00000000000E+00  0.00000000000E+00  0.81010136385E+02  0.81010136385E+02  0.00000000000E+00 0.  1.
       21   -1    0    0  501  503  0.00000000000E+00  0.00000000000E+00 -0.99284295673E+03  0.99284295673E+03  0.00000000000E+00 0.  1.
        6    1    1    2  501    0  0.11349925774E+02 -0.19123394984E+03 -0.23349454222E+03  0.34806313455E+03  0.17300000000E+03 0.  1.
       -6    1    1    2    0  502 -0.11349925774E+02  0.19123394984E+03 -0.67833827813E+03  0.72578995857E+03  0.17300000000E+03 0.  1.
</event>
<event>
 5   1  0.6181100E+00  0.8194113E+02  0.7957747E-01  0.1322429E+00
       -2   -1    0    0    0  501  0.00000000000E+00  0.00000000000E+00  0.42700532844E+02  0.42700532844E+02  0.00000000000E+00 0.  1.
        1   -1    0    0  501    0  0.00000000000E+00  0.00000000000E+00 -0.39310684671E+02  0.39310684671E+02  0.00000000000E+00 0. -1.
      -24    2    1    2    0    0  0.00000000000E+00  0.00000000000E+00  0.33898481726E+01  0.82011217515E+02  0.81941129646E+02 0.  0.
       11    1    3    3    0    0  0.19815561302E+02  0.82387108382E+01 -0.33235563436E+02  0.39561793474E+02  0.00000000000E+00 0. -1.
      -12    1    3    3    0    0 -0.19815561302E+02 -0.82387108382E+01  0.36625411608E+02  0.42449424041E+02  0.00000000000E+00 0.  1.
</event>
<event>
 5   1  0.6181100E+00  0.8114808E+02  0.7957747E-01  0.1324508E+00
       -2   -1    0    0    0  501  0.00000000000E+00  0.00000000000E+00  0.81574218509E+02  0.81574218509E+02  0.00000000000E+00 0.  1.
        1   -1    0    0  501    0  0.00000000000E+00  0.00000000000E+00 -0.20181040351E+02  0.20181040351E+02  0.00000000000E+00 0. -1.
      -24    2    1    2    0    0  0.00000000000E+00  0.00000000000E+00  0.61393178158E+02  0.10175525886E+03  0.81148076880E+02 0.  0.
       11    1    3    3    0    0  0.32115859028E+02 -0.18251350657E+02  0.51743172649E+02  0.63575908312E+02  0.00000000000E+00 0. -1.
      -12    1    3    3    0    0 -0.32115859028E+02  0.18251350657E+02  0.96500055092E+01  0.38179350548E+02  0.00000000000E+00 0.  1.
</event>
<event>
 5   1  0.6181100E+00  0.8042674E+02  0.7957747E-01  0.1326422E+00
        1   -1    0    0  501    0  0.00000000000E+00  0.00000000000E+00  0.44869223769E+02  0.44869223769E+02  0.00000000000E+00 0. -1.
       -2   -1    0    0    0  501  0.00000000000E+00  0.00000000000E+00 -0.36040631097E+02  0.36040631097E+02  0.00000000000E+00 0.  1.
      -24    2    1    2    0    0  0.00000000000E+00  0.00000000000E+00  0.88285926718E+01  0.80909854866E+02  0.80426740366E+02 0.  0.
       11    1    3    3    0    0 -0.14562717674E+02 -0.13655958812E+02  0.39531822283E+02  0.44286825695E+02  0.00000000000E+00 0. -1.
      -12    1    3    3    0    0  0.14562717674E+02  0.13655958812E+02 -0.30703229611E+02  0.36623029171E+02  0.00000000000E+00 0.  1.
</event>
<event>
 5   1  0.6181100E+00  0.6223799E+02  0.7957747E-01  0.1383844E+00
       -2   -1    0    0    0  501  0.00000000000E+00  0.00000000000E+00  0.17222445536E+03  0.17222445536E+03  0.00000000000E+00 0.  1.
        1   -1    0    0  501    0  0.00000000000E+00  0.00000000000E+00 -0.56228473512E+01  0.56228473512E+01  0.00000000000E+00 0. -1.
      -24    2    1    2    0    0  0.00000000000E+00  0.00000000000E+00  0.16660160801E+03  0.17784730271E+03  0.62237989127E+02 0.  0.
       11    1    3    3    0    0  0.71211161471E+01  0.29670733211E+02  0.65841955524E+02  0.72568766089E+02  0.00000000000E+00 0. -1.
      -12    1    3    3    0    0 -0.71211161471E+01 -0.29670733211E+02  0.10075965249E+03  0.10527853663E+03  0.00000000000E+00 0.  1.
</event>
<event>
 5   1  0.6181100E+00  0.8035327E+02  0.7957747E-01  0.1326618E+00
       -4   -1    0    0    0  501  0.00000000000E+00  0.00000000000E+00  0.13717576755E+03  0.13717576755E+03  0.00000000000E+00 0.  1.
        3   -1    0    0  501    0  0.00000000000E+00  0.00000000000E+00 -0.11767107740E+02  0.11767107740E+02  0.00000000000E+00 0. -1.
      -24    2    1    2    0    0  0.00000000000E+00  0.00000000000E+00  0.12540865981E+03  0.14894287529E+03  0.80353270902E+02 0.  0.
       11    1    3    3    0    0 -0.57698974088E+01  0.27136546652E+02  0.88388686018E+01  0.29117168105E+02  0.00000000000E+00 0. -1.
      -12    1    3    3    0    0  0.57698974088E+01 -0.27136546652E+02  0.11656979121E+03  0.11982570719E+03  0.00000000000E+00 0.  1.
</event>
<event>
 5   1  0.6181100E+00  0.7872372E+02  0.7957747E-01  0.1331032E+00
        1   -1    0    0  501    0  0.00000000000E+00  0.00000000000E+00  0.68167813298E+01  0.68167813298E+01  0.00000000000E+00 0. -1.
       -2   -1    0    0    0  501  0.00000000000E+00  0.00000000000E+00 -0.22728554939E+03  0.22728554939E+03  0.00000000000E+00 0.  1.
      -24    2    1    2    0    0  0.00000000000E+00  0.00000000000E+00 -0.22046876806E+03  0.23410233072E+03  0.78723716620E+02 0.  0.
       11    1    3    3    0    0  0.10634995328E+02 -0.35621735390E+01  0.19645157656E+01  0.11386462494E+02  0.00000000000E+00 0. -1.
      -12    1    3    3    0    0 -0.10634995328E+02  0.35621735390E+01 -0.22243328382E+03  0.22271586822E+03  0.00000000000E+00 0.  1.
</event>
<event>
 5   1  0.6181100E+00  0.8136464E+02  0.7957747E-01  0.1323937E+00
       -2   -1    0    0    0  501  0.00000000000E+00  0.00000000000E+00  0.44042477948E+01  0.44042477948E+01  0.00000000000E+00 0.  1.
        1   -1    0    0  501    0  0.00000000000E+00  0.00000000000E+00 -0.37578517909E+03  0.37578517909E+03  0.00000000000E+00 0. -1.
      -24    2    1    2    0    0  0.00000000000E+00  0.00000000000E+00 -0.37138093130E+03  0.38018942689E+03  0.81364637191E+02 0.  0.
       11    1    3    3    0    0  0.31160820562E+01  0.37869425799E+02 -0.11777631010E+03  0.12375404074E+03  0.00000000000E+00 0. -1.
      -12    1    3    3    0    0 -0.31160820562E+01 -0.37869425799E+02 -0.25360462119E+03  0.25643538615E+03  0.00000000000E+00 0.  1.
</event>
<event>
 5   1  0.6181100E+00  0.8118272E+02  0.7957747E-01  0.1324416E+00
       -2   -1    0    0    0  501  0.00000000000E+00  0.00000000000E+00  0.10746709016E+02  0.10746709016E+02  0.00000000000E+00 0.  1.
        1   -1    0    0  501    0  0.00000000000E+00  0.00000000000E+00 -0.15331748161E+03  0.15331748161E+03  0.00000000000E+00 0. -1.
      -24    2    1    2    0    0  0.00000000000E+00  0.00000000000E+00 -0.14257077259E+03  0.16406419062E+03  0.81182716435E+02 0.  0.
       11    1    3    3    0    0 -0.40046418325E+02 -0.52207608294E+01 -0.79540660735E+02  0.89205878026E+02  0.00000000000E+00 0. -1.
      -12    1    3    3    0    0  0.40046418325E+02  0.52207608294E+01 -0.63030111854E+02  0.74858312596E+02  0.00000000000E+00 0.  1.
</event>
<event>
 5   1  0.6181100E+00  0.8373913E+02  0.7957747E-01  0.1317814E+00
        3   -1    0    0  501    0  0.00000000000E+00  0.00000000000E+00  0.42275017110E+02  0.42275017110E+02  0.00000000000E+00 0. -1.
       -4   -1    0    0    0  501  0.00000000000E+00  0.00000000000E+00 -0.41467997227E+02  0.41467997227E+02  0.00000000000E+00 0.  1.
      -24    2    1    2    0    0  0.00000000000E+00  0.00000000000E+00  0.80701988269E+00  0.83743014336E+02  0.83739125676E+02 0.  0.
       11    1    3    3    0    0  0.38686957823E+02  0.10867466656E+02  0.12163212236E+02  0.41984833798E+02  0.00000000000E+00 0. -1.
      -12    1    3    3    0    0 -0.38686957823E+02 -0.10867466656E+02 -0.11356192353E+02  0.41758180539E+02  0.00000000000E+00 0.  1.
</event>
<event>
 5   1  0.6181100E+00  0.7757032E+02  0.7957747E-01  0.1334231E+00
        1   -1    0    0  501    0  0.00000000000E+00  0.00000000000E+00  0.60134528313E+01  0.60134528313E+01  0.00000000000E+00 0. -1.
       -2   -1    0    0    0  501  0.00000000000E+00  0.00000000000E+00 -0.25015389543E+03  0.25015389543E+03  0.00000000000E+00 0.  1.
      -24    2    1    2    0    0  0.00000000000E+00  0.00000000000E+00 -0.24414044260E+03  0.25616734826E+03  0.77570320374E+02 0.  0.
       11    1    3    3    0    0  0.29075876920E+02 -0.21664697430E+02 -0.76607120440E+02  0.84755038998E+02  0.00000000000E+00 0. -1.
      -12    1    3    3    0    0 -0.29075876920E+02  0.21664697430E+02 -0.16753332216E+03  0.17141230926E+03  0.00000000000E+00 0.  1.
</event>
<event>
 4   3  0.6181100E+00  0.1855410E+03  0.7957747E-01  0.1168351E+00
       21   -1    0    0  503  502  0.00000000000E+00  0.00000000000E+00  0.27409131584E+02  0.27409131584E+02  0.00000000000E+00 0. -1.
       21   -1    0    0  501  503  0.00000000000E+00  0.00000000000E+00 -0.13027389504E+04  0.13027389504E+04  0.00000000000E+00 0. -1.
        6    1    1    2  501    0 -0.41995433833E+01  0.66924028680E+02 -0.51167091758E+03  0.54427253254E+03  0.17300000000E+03 0. -1.
       -6    1    1    2    0  502  0.41995433833E+01 -0.66924028680E+02 -0.76365890129E+03  0.78587554950E+03  0.17300000000E+03 0. -1.
</event>
<event>
 5   1  0.6181100E+00  0.8067393E+02  0.7957747E-01  0.1325763E+00
       -2   -1    0    0    0  501  0.00000000000E+00  0.00000000000E+00  0.67619508579E+02  0.67619508579E+02  0.00000000000E+00 0.  1.
        1   -1    0    0  501    0  0.00000000000E+00  0.00000000000E+00 -0.24062147743E+02  0.24062147743E+02  0.00000000000E+00 0. -1.
      -24    2    1    2    0    0  0.00000000000E+00  0.00000000000E+00  0.43557360836E+02  0.91681656322E+02  0.80673926538E+02 0.  0.
       11    1    3    3    0    0  0.15217031169E+01 -0.39564650100E+02  0.13020403544E+02  0.41679827571E+02  0.00000000000E+00 0. -1.
      -12    1    3    3    0    0 -0.15217031169E+01  0.39564650100E+02  0.30536957291E+02  0.50001828751E+02  0.00000000000E+00 0.  1.
</event>
<event>
 5   1  0.6181100E+00  0.8084453E+02  0.7957747E-01  0.1325310E+00
       -2   -1    0    0    0  501  0.00000000000E+00  0.00000000000E+00  0.27534471871E+02  0.27534471871E+02  0.00000000000E+00 0.  1.
        1   -1    0    0  501    0  0.00000000000E+00  0.00000000000E+00 -0.59342328177E+02  0.59342328177E+02  0.00000000000E+00 0. -1.
      -24    2    1    2    0    0  0.00000000000E+00  0.00000000000E+00 -0.31807856306E+02  0.86876800048E+02  0.80844533915E+02 0.  0.
       11    1    3    3    0    0 -0.18317972889E+01 -0.35146277393E+02 -0.37270772413E+02  0.51261357495E+02  0.00000000000E+00 0. -1.
      -12    1    3    3    0    0  0.18317972889E+01  0.35146277393E+02  0.54629161076E+01  0.35615442554E+02  0.00000000000E+00 0.  1.
</event>
<event>
 5   1  0.6181100E+00  0.8141435E+02  0.7957747E-01  0.1323807E+00
       -2   -1    0    0    0  501  0.00000000000E+00  0.00000000000E+00  0.52476383168E+02  0.52476383168E+02  0.00000000000E+00 0.  1.
        1   -1    0    0  501    0  0.00000000000E+00  0.00000000000E+00 -0.31577521208E+02  0.31577521208E+02  0.00000000000E+00 0. -1.
      -24    2    1    2    0    0  0.00000000000E+00  0.00000000000E+00  0.20898861961E+02  0.84053904376E+02  0.81414350145E+02 0.  0.
       11    1    3    3    0    0  0.25637425941E+02 -0.28819460984E+02 -0.29813798361E+01  0.38687563455E+02  0.00000000000E+00 0. -1.
      -12    1    3    3    0    0 -0.25637425941E+02  0.28819460984E+02  0.23880241797E+02  0.45366340921E+02  0.00000000000E+00 0.  1.
</event>
<event>
 5   1  0.6181100E+00  0.7725297E+02  0.7957747E-01  0.1335122E+00
       -4   -1    0    0    0  501  0.00000000000E+00  0.00000000000E+00  0.28765234351E+02  0.28765234351E+02  0.00000000000E+00 0.  1.
        3   -1    0    0  501    0  0.00000000000E+00  0.00000000000E+00 -0.51868351873E+02  0.51868351873E+02  0.00000000000E+00 0. -1.
      -24    2    1    2    0    0  0.00000000000E+00  0.00000000000E+00 -0.23103117522E+02  0.80633586224E+02  0.77252968798E+02 0.  0.
       11    1    3    3    0    0  0.15522417816E+02  0.30152050957E+01 -0.48335314256E+02  0.50856066706E+02  0.00000000000E+00 0. -1.
      -12    1    3    3    0    0 -0.15522417816E+02 -0.30152050957E+01  0.25232196734E+02  0.29777519518E+02  0.00000000000E+00 0.  1.
</event>
<event>
 5   1  0.6181100E+00  0.8131841E+02  0.7957747E-01  0.1324059E+00
        1   -1    0    0  501    0  0.00000000000E+00  0.00000000000E+00  0.99105639489E+02  0.99105639489E+02  0.00000000000E+00 0. -1.
       -2   -1    0    0    0  501  0.00000000000E+00  0.00000000000E+00 -0.16680894956E+02  0.16680894956E+02  0.00000000000E+00 0.  1.
      -24    2    1    2    0    0  0.00000000000E+00  0.00000000000E+00  0.82424744533E+02  0.11578653444E+03  0.81318405342E+02 0.  0.
       11    1    3    3    0    0 -0.11127416948E+02  0.34216012412E+02  0.68176348849E+02  0.77088062991E+02  0.00000000000E+00 0. -1.
      -12    1    3    3    0    0  0.11127416948E+02 -0.34216012412E+02  0.14248395684E+02  0.38698471454E+02  0.00000000000E+00 0.  1.
</event>
<event>
 6   2  0.6181100E+00  0.9077927E+02  0.7957747E-01  0.1300927E+00
       21   -1    0    0  501  502  0.00000000000E+00  0.00000000000E+00  0.28979385945E+03  0.28979385945E+03  0.00000000000E+00 0.  1.
        1   -1    0    0  502    0  0.00000000000E+00  0.00000000000E+00 -0.20610795022E+02  0.20610795022E+02  0.00000000000E+00 0. -1.
      -24    2    1    2    0    0 -0.34933729863E+02  0.22305898262E+02  0.24750994677E+03  0.26363241262E+03  0.80764823094E+02 0.  0.
       11    1    3    3    0    0  0.13442282526E+02 -0.20366458536E+02  0.46332395995E+02  0.52365814339E+02  0.00000000000E+00 0. -1.
      -12    1    3    3    0    0 -0.48376012389E+02  0.42672356798E+02  0.20117755078E+03  0.21126659828E+03  0.00000000000E+00 0.  1.
        2    1    1    2  501    0  0.34933729863E+02 -0.22305898262E+02  0.21673117653E+02  0.46772241856E+02  0.00000000000E+00 0. -1.
</event>
<event>
 5   1  0.6181100E+00  0.8192162E+02  0.7957747E-01  0.1322480E+00
        3   -1    0    0  501    0  0.00000000000E+00  0.00000000000E+00  0.27435465515E+03  0.27435465515E+03  0.00000000000E+00 0. -1.
       -4   -1    0    0    0  501  0.00000000000E+00  0.00000000000E+00 -0.61153983190E+01  0.61153983190E+01  0.00000000000E+00 0.  1.
      -24    2    1    2    0    0  0.00000000000E+00  0.00000000000E+00  0.26823925683E+03  0.28047005347E+03  0.81921621003E+02 0.  0.
       11    1    3    3    0    0 -0.35738981826E+01  0.37873576037E+02  0.18611020832E+03  0.18995839058E+03  0.00000000000E+00 0. -1.
      -12    1    3    3    0    0  0.35738981826E+01 -0.37873576037E+02  0.82129048513E+02  0.90511662893E+02  0.00000000000E+00 0.  1.
</event>
<event>
 5   1  0.6181100E+00  0.8007185E+02  0.7957747E-01  0.1327372E+00
       -2   -1    0    0    0  501  0.00000000000E+00  0.00000000000E+00  0.15443850715E+02  0.15443850715E+02  0.00000000000E+00 0.  1.
        1   -1    0    0  501    0  0.00000000000E+00  0.00000000000E+00 -0.10378727046E+03  0.10378727046E+03  0.00000000000E+00 0. -1.
      -24    2    1    2    0    0  0.00000000000E+00  0.00000000000E+00 -0.88343419743E+02  0.11923112117E+03  0.80071845514E+02 0.  0.
       11    1    3    3    0    0  0.12082873776E+02  0.34343474457E+02 -0.19370837420E+02  0.41239537083E+02  0.00000000000E+00 0. -1.
      -12    1    3    3    0    0 -0.12082873776E+02 -0.34343474457E+02 -0.68972582322E+02  0.77991584089E+02  0.00000000000E+00 0.  1.
</event>
<event>
 5   1  0.6181100E+00  0.8065200E+02  0.7957747E-01  0.1325822E+00
        1   -1    0    0  501    0  0.00000000000E+00  0.00000000000E+00  0.29441763905E+01  0.29441763905E+01  0.00000000000E+00 0. -1.
       -2   -1    0    0    0  501  0.00000000000E+00  0.00000000000E+00 -0.55233993489E+03  0.55233993489E+03  0.00000000000E+00 0.  1.
      -24    2    1    2    0    0  0.00000000000E+00  0.00000000000E+00 -0.54939575850E+03  0.55528411128E+03  0.80651998012E+02 0.  0.
       11    1    3    3    0    0 -0.27547848782E+02  0.15276398044E+02 -0.10134857630E+03  0.10613098618E+03  0.00000000000E+00 0. -1.
      -12    1    3    3    0    0  0.27547848782E+02 -0.15276398044E+02 -0.44804718220E+03  0.44915312510E+03  0.00000000000E+00 0.  1.
</event>
<event>
 6   2  0.6181100E+00  0.8578722E+02  0.7957747E-01  0.1312713E+00
        3   -1    0    0  502    0  0.00000000000E+00  0.00000000000E+00  0.32619189572E+02  0.32619189572E+02  0.00000000000E+00 0. -1.
       -4   -1    0    0    0  501  0.00000000000E+00  0.00000000000E+00 -0.90437147609E+02  0.90437147609E+02  0.00000000000E+00 0.  1.
      -24    2    1    2    0    0  0.16556244415E+02  0.15308261822E+02 -0.49355625515E+02  0.98971836337E+02  0.82770734616E+02 0.  0.
       11    1    3    3    0    0 -0.47644763373E+01  0.40482170649E+02 -0.14261772148E+01  0.40786521752E+02  0.00000000000E+00 0. -1.
      -12    1    3    3    0    0  0.21320720753E+02 -0.25173908827E+02 -0.47929448300E+02  0.58185314585E+02  0.00000000000E+00 0.  1.
       21    1    1    2  502  501 -0.16556244415E+02 -0.15308261822E+02 -0.84623325217E+01  0.24084500843E+02  0.00000000000E+00 0.  1.
</event>
<event>
 5   1  0.6181100E+00  0.7936591E+02  0.7957747E-01  0.1329278E+00
       -4   -1    0    0    0  501  0.00000000000E+00  0.00000000000E+00  0.29032569246E+02  0.29032569246E+02  0.00000000000E+00 0.  1.
        3   -1    0    0  501    0  0.00000000000E+00  0.00000000000E+00 -0.54240358771E+02  0.54240358771E+02  0.00000000000E+00 0. -1.
      -24    2    1    2    0    0  0.00000000000E+00  0.00000000000E+00 -0.25207789526E+02  0.83272928017E+02  0.79365911371E+02 0.  0.
       11    1    3    3    0    0 -0.25368599206E+02  0.30359994555E+02 -0.15827924167E+02  0.42612419299E+02  0.00000000000E+00 0. -1.
      -12    1    3    3    0    0  0.25368599206E+02 -0.30359994555E+02 -0.93798653591E+01  0.40660508718E+02  0.00000000000E+00 0.  1.
</event>
<event>
 4   3  0.6181100E+00  0.3518673E+03  0.7957747E-01  0.1070668E+00
       21   -1    0    0  501  502  0.00000000000E+00  0.00000000000E+00  0.96420412357E+03  0.96420412357E+03  0.00000000000E+00 0.  1.
       21   -1    0    0  502  503  0.00000000000E+00  0.00000000000E+00 -0.14159101581E+03  0.14159101581E+03  0.00000000000E+00 0. -1.
        6    1    1    2  501    0  0.18147509487E+03  0.24687730292E+03  0.24259307923E+03  0.42738976924E+03  0.17300000000E+03 0. -1.
       -6    1    1    2    0  503 -0.18147509487E+03 -0.24687730292E+03  0.58002002853E+03  0.67840537015E+03  0.17300000000E+03 0.  1.
</event>
<event>
 5   1  0.6181100E+00  0.7896424E+02  0.7957747E-01  0.1330373E+00
        3   -1    0    0  501    0  0.00000000000E+00  0.00000000000E+00  0.43650874793E+02  0.43650874793E+02  0.00000000000E+00 0. -1.
       -4   -1    0    0    0  501  0.00000000000E+00  0.00000000000E+00 -0.35711490077E+02  0.35711490077E+02  0.00000000000E+00 0.  1.
      -24    2    1    2    0    0  0.00000000000E+00  0.00000000000E+00  0.79393847160E+01  0.79362364871E+02  0.78964239553E+02 0.  0.
       11    1    3    3    0    0 -0.16129613618E+01  0.27461913991E+02  0.32433489084E+02  0.42528691239E+02  0.00000000000E+00 0. -1.
      -12    1    3    3    0    0  0.16129613618E+01 -0.27461913991E+02 -0.24494104368E+02  0.36833673631E+02  0.00000000000E+00 0.  1.
</event>
<event>
 5   1  0.6181100E+00  0.8053037E+02  0.7957747E-01  0.1326145E+00
        1   -1    0    0  501    0  0.00000000000E+00  0.00000000000E+00  0.19155672462E+03  0.19155672462E+03  0.00000000000E+00 0. -1.
       -2   -1    0    0    0  501  0.00000000000E+00  0.00000000000E+00 -0.84637341940E+01  0.84637341940E+01  0.00000000000E+00 0.  1.
      -24    2    1    2    0    0  0.00000000000E+00  0.00000000000E+00  0.18309299043E+03  0.20002045882E+03  0.80530371917E+02 0.  0.
       11    1    3    3    0    0  0.29790901274E+02  0.26921897018E+02  0.98997391557E+02  0.10683056619E+03  0.00000000000E+00 0. -1.
      -12    1    3    3    0    0 -0.29790901274E+02 -0.26921897018E+02  0.84095598871E+02  0.93189892624E+02  0.00000000000E+00 0.  1.
</event>
<event>
 5   1  0.6181100E+00  0.8032086E+02  0.7957747E-01  0.1326705E+00
       -2   -1    0    0    0  501  0.00000000000E+00  0.00000000000E+00  0.44869621155E+01  0.44869621155E+01  0.00000000000E+00 0.  1.
        1   -1    0    0  501    0  0.00000000000E+00  0.00000000000E+00 -0.35945484770E+03  0.35945484770E+03  0.00000000000E+00 0. -1.
      -24    2    1    2    0    0  0.00000000000E+00  0.00000000000E+00 -0.35496788558E+03  0.36394180981E+03  0.80320863637E+02 0.  0.
       11    1    3    3    0    0  0.24064930727E+02 -0.30637758812E+02 -0.13330464916E+03  0.13888096574E+03  0.00000000000E+00 0. -1.
      -12    1    3    3    0    0 -0.24064930727E+02  0.30637758812E+02 -0.22166323642E+03  0.22506084407E+03  0.00000000000E+00 0.  1.
</event>
<event>
 5   1  0.6181100E+00  0.8006636E+02  0.7957747E-01  0.1327386E+00
       -2   -1    0    0    0  501  0.00000000000E+00  0.00000000000E+00  0.38523558211E+01  0.38523558211E+01  0.00000000000E+00 0.  1.
        1   -1    0    0  501    0  0.00000000000E+00  0.00000000000E+00 -0.41601963863E+03  0.41601963863E+03  0.00000000000E+00 0. -1.
      -24    2    1    2    0    0  0.00000000000E+00  0.00000000000E+00 -0.41216728281E+03  0.41987199445E+03  0.80066364388E+02 0.  0.
       11    1    3    3    0    0  0.35344080114E+02 -0.83246755285E+01 -0.11768578347E+03  0.12316025273E+03  0.00000000000E+00 0. -1.
      -12    1    3    3    0    0 -0.35344080114E+02  0.83246755285E+01 -0.29448149934E+03  0.29671174172E+03  0.00000000000E+00 0.  1.
</event>
<event>
 5   1  0.6181100E+00  0.8003136E+02  0.7957747E-01  0.1327481E+00
        1   -1    0    0  501    0  0.00000000000E+00  0.00000000000E+00  0.32552588570E+01  0.32552588570E+01  0.00000000000E+00 0. -1.
       -2   -1    0    0    0  501  0.00000000000E+00  0.00000000000E+00 -0.49189775609E+03  0.49189775609E+03  0.00000000000E+00 0.  1.
      -24    2    1    2    0    0  0.00000000000E+00  0.00000000000E+00 -0.48864249723E+03  0.49515301494E+03  0.80031357036E+02 0.  0.
       11    1    3    3    0    0 -0.17714291485E+02  0.21000751592E+02 -0.64320645958E+02  0.69942642120E+02  0.00000000000E+00 0. -1.
      -12    1    3    3    0    0  0.17714291485E+02 -0.21000751592E+02 -0.42432185127E+03  0.42521037282E+03  0.00000000000E+00 0.  1.
</event>
<event>
 5   1  0.6181100E+00  0.8171967E+02  0.7957747E-01  0.1323007E+00
        1   -1    0    0  501    0  0.00000000000E+00  0.00000000000E+00  0.34828735449E+01  0.34828735449E+01  0.00000000000E+00 0. -1.
       -2   -1    0    0    0  501  0.00000000000E+00  0.00000000000E+00 -0.47935304959E+03  0.47935304959E+03  0.00000000000E+00 0.  1.
      -24    2    1    2    0    0  0.00000000000E+00  0.00000000000E+00 -0.47587017604E+03  0.48283592313E+03  0.81719668504E+02 0.  0.
       11    1    3    3    0    0  0.18762604372E+02 -0.26453482762E+01 -0.24045172788E+02  0.30613779981E+02  0.00000000000E+00 0. -1.
      -12    1    3    3    0    0 -0.18762604372E+02  0.26453482762E+01 -0.45182500325E+03  0.45222214315E+03  0.00000000000E+00 0.  1.
</event>
<event>
 5   1  0.6181100E+00  0.8070422E+02  0.7957747E-01  0.1325683E+00
       -2   -1    0    0    0  501  0.00000000000E+00  0.00000000000E+00  0.12498150196E+03  0.12498150196E+03  0.00000000000E+00 0.  1.
        1   -1    0    0  501    0  0.00000000000E+00  0.00000000000E+00 -0.13028271314E+02  0.13028271314E+02  0.00000000000E+00 0. -1.
      -24    2    1    2    0    0  0.00000000000E+00  0.00000000000E+00  0.11195323065E+03  0.13800977328E+03  0.80704223356E+02 0.  0.
       11    1    3    3    0    0  0.15215790511E+02 -0.30869179677E+02  0.19948652449E+02  0.39779080801E+02  0.00000000000E+00 0. -1.
      -12    1    3    3    0    0 -0.15215790511E+02  0.30869179677E+02  0.92004578201E+02  0.98230692478E+02  0.00000000000E+00 0.  1.
</event>
<event>
 5   1  0.6181100E+00  0.7986226E+02  0.7957747E-01  0.1327935E+00
       -2   -1    0    0    0  501  0.00000000000E+00  0.00000000000E+00  0.29921034197E+02  0.29921034197E+02  0.00000000000E+00 0.  1.
        1   -1    0    0  501    0  0.00000000000E+00  0.00000000000E+00 -0.53290111367E+02  0.53290111367E+02  0.00000000000E+00 0. -1.
      -24    2    1    2    0    0  0.00000000000E+00  0.00000000000E+00 -0.23369077171E+02  0.83211145564E+02  0.79862262541E+02 0.  0.
       11    1    3    3    0    0 -0.16925184219E+02  0.31531880329E+01  0.25855302105E+02  0.31062857282E+02  0.00000000000E+00 0. -1.
      -12    1    3    3    0    0  0.16925184219E+02 -0.31531880329E+01 -0.49224379275E+02  0.52148288281E+02  0.00000000000E+00 0.  1.
</event>
<event>
 5   1  0.6181100E+00  0.7995141E+02  0.7957747E-01  0.1327695E+00
       -2   -1    0    0    0  501  0.00000000000E+00  0.00000000000E+00  0.34027688460E+02  0.34027688460E+02  0.00000000000E+00 0.  1.
        1   -1    0    0  501    0  0.00000000000E+00  0.00000000000E+00 -0.46963432051E+02  0.46963432051E+02  0.00000000000E+00 0. -1.
      -24    2    1    2    0    0  0.00000000000E+00  0.00000000000E+00 -0.12935743592E+02  0.80991120511E+02  0.79951411116E+02 0.  0.
       11    1    3    3    0    0  0.37987095196E+02 -0.36128215925E+01  0.56028361435E+01  0.38567650358E+02  0.00000000000E+00 0. -1.
      -12    1    3    3    0    0 -0.37987095196E+02  0.36128215925E+01 -0.18538579735E+02  0.42423470153E+02  0.00000000000E+00 0.  1.
</event>
<event>
 5   1  0.6181100E+00  0.7921674E+02  0.7957747E-01  0.1329684E+00
       -2   -1    0    0    0  501  0.00000000000E+00  0.00000000000E+00  0.26922119514E+03  0.26922119514E+03  0.00000000000E+00 0.  1.
        1   -1    0    0  501    0  0.00000000000E+00  0.00000000000E+00 -0.58272645006E+01  0.58272645006E+01  0.00000000000E+00 0. -1.
      -24    2    1    2    0    0  0.00000000000E+00  0.00000000000E+00  0.26339393064E+03  0.27504845964E+03  0.79216743515E+02 0.  0.
       11    1    3    3    0    0 -0.96965710386E+01 -0.24546845376E+02  0.29152265006E+02  0.39324619042E+02  0.00000000000E+00 0. -1.
      -12    1    3    3    0    0  0.96965710386E+01  0.24546845376E+02  0.23424166564E+03  0.23572384060E+03  0.00000000000E+00 0.  1.
</event>
<event>
 5   1  0.6181100E+00  0.8000163E+02  0.7957747E-01  0.1327560E+00
        1   -1    0    0  501    0  0.00000000000E+00  0.00000000000E+00  0.20469262001E+03  0.20469262001E+03  0.00000000000E+00 0. -1.
       -2   -1    0    0    0  501  0.00000000000E+00  0.00000000000E+00 -0.78169173819E+01  0.78169173819E+01  0.00000000000E+00 0.  1.
      -24    2    1    2    0    0  0.00000000000E+00  0.00000000000E+00  0.19687570262E+03  0.21250953739E+03  0.80001632465E+02 0.  0.
       11    1    3    3    0    0  0.31411566531E+01 -0.35432244022E+02  0.14703858217E+03  0.15128005628E+03  0.00000000000E+00 0. -1.
      -12    1    3    3    0    0 -0.31411566531E+01  0.35432244022E+02  0.49837120454E+02  0.61229481108E+02  0.00000000000E+00 0.  1.
</event>
<event>
 5   1  0.6181100E+00  0.8100101E+02  0.7957747E-01  0.1324896E+00
       -4   -1    0    0    0  501  0.00000000000E+00  0.00000000000E+00  0.97184763158E+01  0.97184763158E+01  0.00000000000E+00 0.  1.
        3   -1    0    0  501    0  0.00000000000E+00  0.00000000000E+00 -0.16878064841E+03  0.16878064841E+03  0.00000000000E+00 0. -1.
      -24    2    1    2    0    0  0.00000000000E+00  0.00000000000E+00 -0.15906217209E+03  0.17849912472E+03  0.81001005774E+02 0.  0.
       11    1    3    3    0    0 -0.88327490958E+01 -0.39475852459E+02 -0.83899877367E+02  0.93142631518E+02  0.00000000000E+00 0. -1.
      -12    1    3    3    0    0  0.88327490958E+01  0.39475852459E+02 -0.75162294723E+02  0.85356493203E+02  0.00000000000E+00 0.  1.
</event>
<event>
 5   1  0.6181100E+00  0.8127750E+02  0.7957747E-01  0.1324167E+00
       -2   -1    0    0    0  501  0.00000000000E+00  0.00000000000E+00  0.57160132415E+01  0.57160132415E+01  0.00000000000E+00 0.  1.
        1   -1    0    0  501    0  0.00000000000E+00  0.00000000000E+00 -0.28892652423E+03  0.28892652423E+03  0.00000000000E+00 0. -1.
      -24    2    1    2    0    0  0.00000000000E+00  0.00000000000E+00 -0.28321051098E+03  0.29464253747E+03  0.81277495982E+02 0.  0.
       11    1    3    3    0    0  0.13393968198E+02 -0.37496814867E+02 -0.17107798587E+03  0.17565046757E+03  0.00000000000E+00 0. -1.
      -12    1    3    3    0    0 -0.13393968198E+02  0.37496814867E+02 -0.11213252512E+03  0.11899206990E+03  0.00000000000E+00 0.  1.
</event>
<event>
 5   1  0.6181100E+00  0.8015607E+02  0.7957747E-01  0.1327146E+00
        1   -1    0    0  501    0  0.00000000000E+00  0.00000000000E+00  0.12728982713E+02  0.12728982713E+02  0.00000000000E+00 0. -1.
       -2   -1    0    0    0  501  0.00000000000E+00  0.00000000000E+00 -0.12618830564E+03  0.12618830564E+03  0.00000000000E+00 0.  1.
      -24    2    1    2    0    0  0.00000000000E+00  0.00000000000E+00 -0.11345932293E+03  0.13891728835E+03  0.80156066796E+02 0.  0.
       11    1    3    3    0    0  0.15111745246E+02 -0.30728483254E+02 -0.20639677699E+02  0.39982506462E+02  0.00000000000E+00 0. -1.
      -12    1    3    3    0    0 -0.15111745246E+02  0.30728483254E+02 -0.92819645227E+02  0.98934781889E+02  0.00000000000E+00 0.  1.
</event>
<event>
 5   1  0.6181100E+00  0.8814301E+02  0.7957747E-01  0.1307041E+00
       -4   -1    0    0    0  501  0.00000000000E+00  0.00000000000E+00  0.11411810876E+03  0.11411810876E+03  0.00000000000E+00 0.  1.
        3   -1    0    0  501    0  0.00000000000E+00  0.00000000000E+00 -0.17020065130E+02  0.17020065130E+02  0.00000000000E+00 0. -1.
      -24    2    1    2    0    0  0.00000000000E+00  0.00000000000E+00  0.97098043633E+02  0.13113817389E+03  0.88143012057E+02 0.  0.
       11    1    3    3    0    0 -0.40363573030E+02 -0.11758138437E+02  0.68220817367E+02  0.80134585351E+02  0.00000000000E+00 0. -1.
      -12    1    3    3    0    0  0.40363573030E+02  0.11758138437E+02  0.28877226267E+02  0.51003588541E+02  0.00000000000E+00 0.  1.
</event>
<event>
 5   1  0.6181100E+00  0.8115681E+02  0.7957747E-01  0.1324485E+00
       -4   -1    0    0    0  501  0.00000000000E+00  0.00000000000E+00  0.69701847821E+02  0.69701847821E+02  0.00000000000E+00 0.  1.
        3   -1    0    0  501    0  0.00000000000E+00  0.00000000000E+00 -0.23623578884E+02  0.23623578884E+02  0.00000000000E+00 0. -1.
      -24    2    1    2    0    0  0.00000000000E+00  0.00000000000E+00  0.46078268937E+02  0.93325426704E+02  0.81156813647E+02 0.  0.
       11    1    3    3    0    0 -0.29982176738E+01  0.33271876204E+02 -0.34494431348E+01  0.33584307545E+02  0.00000000000E+00 0. -1.
      -12    1    3    3    0    0  0.29982176738E+01 -0.33271876204E+02  0.49527712072E+02  0.59741119159E+02  0.00000000000E+00 0.  1.
</event>
<event>
 5   1  0.6181100E+00  0.8427227E+02  0.7957747E-01  0.1316470E+00
        1   -1    0    0  501    0  0.00000000000E+00  0.00000000000E+00  0.11893004107E+02  0.11893004107E+02  0.00000000000E+00 0. -1.
       -2   -1    0    0    0  501  0.00000000000E+00  0.00000000000E+00 -0.14928555462E+03  0.14928555462E+03  0.00000000000E+00 0.  1.
      -24    2    1    2    0    0  0.00000000000E+00  0.00000000000E+00 -0.13739255052E+03  0.16117855873E+03  0.84272266238E+02 0.  0.
       11    1    3    3    0    0  0.32734572411E+02 -0.15035516806E+02 -0.26888077631E+02  0.44950947879E+02  0.00000000000E+00 0. -1.
      -12    1    3    3    0    0 -0.32734572411E+02  0.15035516806E+02 -0.11050447288E+03  0.11622761085E+03  0.00000000000E+00 0.  1.
</event>
<event>
 5   1  0.6181100E+00  0.8127677E+02  0.7957747E-01  0.1324168E+00
        3   -1    0    0  501    0  0.00000000000E+00  0.00000000000E+00  0.35466837419E+02  0.35466837419E+02  0.00000000000E+00 0. -1.
       -4   -1    0    0    0  501  0.00000000000E+00  0.00000000000E+00 -0.46564016583E+02  0.46564016583E+02  0.00000000000E+00 0.  1.
      -24    2    1    2    0    0  0.00000000000E+00  0.00000000000E+00 -0.11097179164E+02  0.82030854002E+02  0.81276771730E+02 0.  0.
       11    1    3    3    0    0  0.80674735209E+01 -0.33088739697E+02  0.16827573455E+02  0.37988367326E+02  0.00000000000E+00 0. -1.
      -12    1    3    3    0    0 -0.80674735209E+01  0.33088739697E+02 -0.27924752619E+02  0.44042486676E+02  0.00000000000E+00 0.  1.
</event>
<event>
 5   1  0.6181100E+00  0.7810906E+02  0.7957747E-01  0.1332729E+00
        1   -1    0    0  501    0  0.00000000000E+00  0.00000000000E+00  0.61263837107E+02  0.61263837107E+02  0.00000000000E+00 0. -1.
       -2   -1    0    0    0  501  0.00000000000E+00  0.00000000000E+00 -0.24896519699E+02  0.24896519699E+02  0.00000000000E+00 0.  1.
      -24    2    1    2    0    0  0.00000000000E+00  0.00000000000E+00  0.36367317408E+02  0.86160356806E+02  0.78109060355E+02 0.  0.
       11    1    3    3    0    0  0.97769498962E+01  0.33598566839E+02  0.37315104675E+02  0.51155346542E+02  0.00000000000E+00 0. -1.
      -12    1    3    3    0    0 -0.97769498962E+01 -0.33598566839E+02 -0.94778726664E+00  0.35005010264E+02  0.00000000000E+00 0.  1.
</event>
<event>
 5   1  0.6181100E+00  0.7957243E+02  0.7957747E-01  0.1328718E+00
        1   -1    0    0  501    0  0.00000000000E+00  0.00000000000E+00  0.43512363134E+02  0.43512363134E+02  0.00000000000E+00 0. -1.
       -2   -1    0    0    0  501  0.00000000000E+00  0.00000000000E+00 -0.36379151818E+02  0.36379151818E+02  0.00000000000E+00 0.  1.
      -24    2    1    2    0    0  0.00000000000E+00  0.00000000000E+00  0.71332113156E+01  0.79891514952E+02  0.79572429005E+02 0.  0.
       11    1    3    3    0    0 -0.82484364856E+01  0.37524561748E+02  0.13943107391E+02  0.40872236084E+02  0.00000000000E+00 0. -1.
      -12    1    3    3    0    0  0.82484364856E+01 -0.37524561748E+02 -0.68098960757E+01  0.39019278868E+02  0.00000000000E+00 0.  1.
</event>
<event>
 5   1  0.6181100E+00  0.8127419E+02  0.7957747E-01  0.1324175E+00
       -2   -1    0    0    0  501  0.00000000000E+00  0.00000000000E+00  0.21691447506E+03  0.21691447506E+03  0.00000000000E+00 0.  1.
        1   -1    0    0  501    0  0.00000000000E+00  0.00000000000E+00 -0.76130164414E+01  0.76130164414E+01  0.00000000000E+00 0. -1.
      -24    2    1    2    0    0  0.00000000000E+00  0.00000000000E+00  0.20930145862E+03  0.22452749150E+03  0.81274189384E+02 0.  0.
       11    1    3    3    0    0 -0.15751708353E+02  0.20950157885E+02  0.18861300296E+02  0.32292012639E+02  0.00000000000E+00 0. -1.
      -12    1    3    3    0    0  0.15751708353E+02 -0.20950157885E+02  0.19044015832E+03  0.19223547886E+03  0.00000000000E+00 0.  1.
</event>
<event>
 5   1  0.6181100E+00  0.7911411E+02  0.7957747E-01  0.1329964E+00
        1   -1    0    0  501    0  0.00000000000E+00  0.00000000000E+00  0.11732628658E+03  0.11732628658E+03  0.00000000000E+00 0. -1.
       -2   -1    0    0    0  501  0.00000000000E+00  0.00000000000E+00 -0.13336828351E+02  0.13336828351E+02  0.00000000000E+00 0.  1.
      -24    2    1    2    0    0  0.00000000000E+00  0.00000000000E+00  0.10398945823E+03  0.13066311493E+03  0.79114108607E+02 0.  0.
       11    1    3    3    0    0 -0.31988446800E+02 -0.15697573114E+02  0.80365646671E+02  0.87910816713E+02  0.00000000000E+00 0. -1.
      -12    1    3    3    0    0  0.31988446800E+02  0.15697573114E+02  0.23623811559E+02  0.42752298218E+02  0.00000000000E+00 0.  1.
</event>
<event>
 5   1  0.6181100E+00  0.9498791E+02  0.7957747E-01  0.1291635E+00
       -4   -1    0    0    0  501  0.00000000000E+00  0.00000000000E+00  0.25734652654E+03  0.25734652654E+03  0.00000000000E+00 0.  1.
        3   -1    0    0  501    0  0.00000000000E+00  0.00000000000E+00 -0.87651294775E+01  0.87651294775E+01  0.00000000000E+00 0. -1.
      -24    2    1    2    0    0  0.00000000000E+00  0.00000000000E+00  0.24858139706E+03  0.26611165601E+03  0.94987907139E+02 0.  0.
       11    1    3    3    0    0 -0.26635771035E+02 -0.31339788338E+02  0.57756291094E+02  0.70904413068E+02  0.00000000000E+00 0. -1.
      -12    1    3    3    0    0  0.26635771035E+02  0.31339788338E+02  0.19082510597E+03  0.19520724295E+03  0.00000000000E+00 0.  1.
</event>
<event>
 5   1  0.6181100E+00  0.7953400E+02  0.7957747E-01  0.1328822E+00
        1   -1    0    0  501    0  0.00000000000E+00  0.00000000000E+00  0.32516396076E+01  0.32516396076E+01  0.00000000000E+00 0. -1.
       -2   -1    0    0    0  501  0.00000000000E+00  0.00000000000E+00 -0.48634359462E+03  0.48634359462E+03  0.00000000000E+00 0.  1.
      -24    2    1    2    0    0  0.00000000000E+00  0.00000000000E+00 -0.48309195501E+03  0.48959523422E+03  0.79533995125E+02 0.  0.
       11    1    3    3    0    0 -0.23395473889E+02  0.31304252261E+02 -0.19626436391E+03  0.20011747787E+03  0.00000000000E+00 0. -1.
      -12    1    3    3    0    0  0.23395473889E+02 -0.31304252261E+02 -0.28682759109E+03  0.28947775635E+03  0.00000000000E+00 0.  1.
</event>
<event>
 5   1  0.6181100E+00  0.7876667E+02  0.7957747E-01  0.1330914E+00
       -2   -1    0    0    0  501  0.00000000000E+00  0.00000000000E+00  0.29623957960E+02  0.29623957960E+02  0.00000000000E+00 0.  1.
        1   -1    0    0  501    0  0.00000000000E+00  0.00000000000E+00 -0.52357867571E+02  0.52357867571E+02  0.00000000000E+00 0. -1.
      -24    2    1    2    0    0  0.00000000000E+00  0.00000000000E+00 -0.22733909610E+02  0.81981825531E+02  0.78766674877E+02 0.  0.
       11    1    3    3    0    0 -0.11897654059E+02  0.26270957843E+02 -0.39282050424E+02  0.48731887749E+02  0.00000000000E+00 0. -1.
      -12    1    3    3    0    0  0.11897654059E+02 -0.26270957843E+02  0.16548140814E+02  0.33249937782E+02  0.00000000000E+00 0.  1.
</event>
<event>
 4   3  0.6181100E+00  0.1780421E+03  0.7957747E-01  0.1175263E+00
       21   -1    0    0  503  502  0.00000000000E+00  0.00000000000E+00  0.26249869612E+03  0.26249869612E+03  0.00000000000E+00 0. -1.
       21   -1    0    0  501  503  0.00000000000E+00  0.00000000000E+00 -0.12984781370E+03  0.12984781370E+03  0.00000000000E+00 0. -1.
        6    1    1    2  501    0 -0.40556910260E+02  0.11185976768E+02  0.11822747310E+03  0.21372113709E+03  0.17300000000E+03 0. -1.
       -6    1    1    2    0  502  0.40556910260E+02 -0.11185976768E+02  0.14423409317E+02  0.17862537273E+03  0.17300000000E+03 0. -1.
</event>
<event>
 5   1  0.6181100E+00  0.8450623E+02  0.7957747E-01  0.1315884E+00
       -2   -1    0    0    0  501  0.00000000000E+00  0.00000000000E+00  0.51253673690E+02  0.51253673690E+02  0.00000000000E+00 0.  1.
        1   -1    0    0  501    0  0.00000000000E+00  0.00000000000E+00 -0.34833129014E+02  0.34833129014E+02  0.00000000000E+00 0. -1.
      -24    2    1    2    0    0  0.00000000000E+00  0.00000000000E+00  0.16420544677E+02  0.86086802704E+02  0.84506232387E+02 0.  0.
       11    1    3    3    0    0  0.38019749428E+01 -0.18414206808E+02 -0.30336424459E+02  0.35690848614E+02  0.00000000000E+00 0. -1.
      -12    1    3    3    0    0 -0.38019749428E+01  0.18414206808E+02  0.46756969136E+02  0.50395954090E+02  0.00000000000E+00 0.  1.
</event>
<event>
 4   3  0.6181100E+00  0.4039758E+03  0.7957747E-01  0.1051693E+00
       21   -1    0    0  503  502  0.00000000000E+00  0.00000000000E+00  0.66624996560E+03  0.66624996560E+03  0.00000000000E+00 0. -1.
       21   -1    0    0  501  503  0.00000000000E+00  0.00000000000E+00 -0.26680490914E+03  0.26680490914E+03  0.00000000000E+00 0.  1.
        6    1    1    2  501    0  0.34126672574E+03 -0.12963205656E+03  0.33325191933E+03  0.52369198000E+03  0.17300000000E+03 0. -1.
       -6    1    1    2    0  502 -0.34126672574E+03  0.12963205656E+03  0.66193137139E+02  0.40936289474E+03  0.17300000000E+03 0.  1.
</event>
<event>
 5   1  0.6181100E+00  0.7990027E+02  0.7957747E-01  0.1327833E+00
       -2   -1    0    0    0  501  0.00000000000E+00  0.00000000000E+00  0.53470105801E+01  0.53470105801E+01  0.00000000000E+00 0.  1.
        1   -1    0    0  501    0  0.00000000000E+00  0.00000000000E+00 -0.29848702532E+03  0.29848702532E+03  0.00000000000E+00 0. -1.
      -24    2    1    2    0    0  0.00000000000E+00  0.00000000000E+00 -0.29314001474E+03  0.30383403590E+03  0.79900269897E+02 0.  0.
       11    1    3    3    0    0 -0.32955205979E+02  0.22437304818E+02 -0.13684898162E+03  0.14253814233E+03  0.00000000000E+00 0. -1.
      -12    1    3    3    0    0  0.32955205979E+02 -0.22437304818E+02 -0.15629103313E+03  0.16129589358E+03  0.00000000000E+00 0.  1.
</event>
<event>
 5   1  0.6181100E+00  0.8014041E+02  0.7957747E-01  0.1327188E+00
       -4   -1    0    0    0  501  0.00000000000E+00  0.00000000000E+00  0.15881052644E+03  0.15881052644E+03  0.00000000000E+00 0.  1.
        3   -1    0    0  501    0  0.00000000000E+00  0.00000000000E+00 -0.10110295443E+02  0.10110295443E+02  0.00000000000E+00 0. -1.
      -24    2    1    2    0    0  0.00000000000E+00  0.00000000000E+00  0.14870023100E+03  0.16892082188E+03  0.80140410325E+02 0.  0.
       11    1    3    3    0    0 -0.54897134304E+01 -0.98950474625E+01 -0.66724541306E+01  0.13136611510E+02  0.00000000000E+00 0. -1.
      -12    1    3    3    0    0  0.54897134304E+01  0.98950474625E+01  0.15537268513E+03  0.15578421037E+03  0.00000000000E+00 0.  1.
</event>
<event>
 5   1  0.6181100E+00  0.8063523E+02  0.7957747E-01  0.1325866E+00
       -2   -1    0    0    0  501  0.00000000000E+00  0.00000000000E+00  0.21429291009E+02  0.21429291009E+02  0.00000000000E+00 0.  1.
        1   -1    0    0  501    0  0.00000000000E+00  0.00000000000E+00 -0.75854587223E+02  0.75854587223E+02  0.00000000000E+00 0. -1.
      -24    2    1    2    0    0  0.00000000000E+00  0.00000000000E+00 -0.54425296213E+02  0.97283878232E+02  0.80635228629E+02 0.  0.
       11    1    3    3    0    0 -0.36658270793E+02 -0.16552708249E+02 -0.30558082885E+02  0.50513536775E+02  0.00000000000E+00 0. -1.
      -12    1    3    3    0    0  0.36658270793E+02  0.16552708249E+02 -0.23867213328E+02  0.46770341457E+02  0.00000000000E+00 0.  1.
</event>
<event>
 4   1  0.6181100E+00  0.4652649E+02  0.7957747E-01  0.1455341E+00
        3   -1    0    0  501    0  0.00000000000E+00  0.00000000000E+00  0.16540624666E+02  0.16540624666E+02  0.00000000000E+00 0. -1.
       -4   -1    0    0    0  501  0.00000000000E+00  0.00000000000E+00 -0.32718141130E+02  0.32718141130E+02  0.00000000000E+00 0.  1.
       11    1    1    2    0    0 -0.19672568009E+02  0.79672891452E+01 -0.18171184055E+02  0.27940643485E+02  0.00000000000E+00 0. -1.
      -12    1    1    2    0    0  0.19672568009E+02 -0.79672891452E+01  0.19936675917E+01  0.21318122311E+02  0.00000000000E+00 0.  1.
</event>
<event>
 4   3  0.6181100E+00  0.1731422E+03  0.7957747E-01  0.1179986E+00
       21   -1    0    0  501  502  0.00000000000E+00  0.00000000000E+00  0.23152582212E+02  0.23152582212E+02  0.00000000000E+00 0. -1.
       21   -1    0    0  502  503  0.00000000000E+00  0.00000000000E+00 -0.13299863007E+04  0.13299863007E+04  0.00000000000E+00 0. -1.
        6    1    1    2  501    0  0.54352627025E+01 -0.44357306823E+01 -0.54338770001E+03  0.57030554119E+03  0.17300000000E+03 0. -1.
       -6    1    1    2    0  503 -0.54352627025E+01  0.44357306823E+01 -0.76344601853E+03  0.78283334178E+03  0.17300000000E+03 0. -1.
</event>
<event>
 5   1  0.6181100E+00  0.8209838E+02  0.7957747E-01  0.1322020E+00
        1   -1    0    0  501    0  0.00000000000E+00  0.00000000000E+00  0.21899212666E+03  0.21899212666E+03  0.00000000000E+00 0. -1.
       -2   -1    0    0    0  501  0.00000000000E+00  0.00000000000E+00 -0.76945050000E+01  0.76945050000E+01  0.00000000000E+00 0.  1.
      -24    2    1    2    0    0  0.00000000000E+00  0.00000000000E+00  0.21129762166E+03  0.22668663166E+03  0.82098380339E+02 0.  0.
       11    1    3    3    0    0 -0.14303756054E+02 -0.31916295951E+02  0.46313538849E+02  0.58036120349E+02  0.00000000000E+00 0. -1.
      -12    1    3    3    0    0  0.14303756054E+02  0.31916295951E+02  0.16498408282E+03  0.16865051132E+03  0.00000000000E+00 0.  1.
</event>
<event>
 5   1  0.6181100E+00  0.6976972E+02  0.7957747E-01  0.1357656E+00
        3   -1    0    0  501    0  0.00000000000E+00  0.00000000000E+00  0.15573398570E+03  0.15573398570E+03  0.00000000000E+00 0. -1.
       -4   -1    0    0    0  501  0.00000000000E+00  0.00000000000E+00 -0.78143083660E+01  0.78143083660E+01  0.00000000000E+00 0.  1.
      -24    2    1    2    0    0  0.00000000000E+00  0.00000000000E+00  0.14791967734E+03  0.16354829407E+03  0.69769717997E+02 0.  0.
       11    1    3    3    0    0 -0.23653391104E+02 -0.19945378501E+01  0.13388363051E+03  0.13597164267E+03  0.00000000000E+00 0. -1.
      -12    1    3    3    0    0  0.23653391104E+02  0.19945378501E+01  0.14036046832E+02  0.27576651404E+02  0.00000000000E+00 0.  1.
</event>
<event>
 5   1  0.6181100E+00  0.7837363E+02  0.7957747E-01  0.1331996E+00
       -4   -1    0    0    0  501  0.00000000000E+00  0.00000000000E+00  0.55168880696E+02  0.55168880696E+02  0.00000000000E+00 0.  1.
        3   -1    0    0  501    0  0.00000000000E+00  0.00000000000E+00 -0.27834650826E+02  0.27834650826E+02  0.00000000000E+00 0. -1.
      -24    2    1    2    0    0  0.00000000000E+00  0.00000000000E+00  0.27334229869E+02  0.83003531522E+02  0.78373631551E+02 0.  0.
       11    1    3    3    0    0  0.11346062863E+02 -0.28466158158E+02 -0.12200147644E+02  0.32983312528E+02  0.00000000000E+00 0. -1.
      -12    1    3    3    0    0 -0.11346062863E+02  0.28466158158E+02  0.39534377513E+02  0.50020218994E+02  0.00000000000E+00 0.  1.
</event>
<event>
 4   3  0.6181100E+00  0.1967785E+03  0.7957747E-01  0.1158638E+00
       21   -1    0    0  501  502  0.00000000000E+00  0.00000000000E+00  0.27573963423E+03  0.27573963423E+03  0.00000000000E+00 0. -1.
       21   -1    0    0  502  503  0.00000000000E+00  0.00000000000E+00 -0.14273854573E+03  0.14273854573E+03  0.00000000000E+00 0. -1.
        6    1    1    2  501    0  0.49699396921E+02 -0.79515597163E+02  0.39883303197E+02  0.20077957595E+03  0.17300000000E+03 0. -1.
       -6    1    1    2    0  503 -0.49699396921E+02  0.79515597163E+02  0.93117785301E+02  0.21769860401E+03  0.17300000000E+03 0. -1.
</event>
<event>
 5   1  0.6181100E+00  0.7174743E+02  0.7957747E-01  0.1351399E+00
       -2   -1    0    0    0  501  0.00000000000E+00  0.00000000000E+00  0.16511924063E+02  0.16511924063E+02  0.00000000000E+00 0.  1.
        1   -1    0    0  501    0  0.00000000000E+00  0.00000000000E+00 -0.77939039477E+02  0.77939039477E+02  0.00000000000E+00 0. -1.
      -24    2    1    2    0    0  0.00000000000E+00  0.00000000000E+00 -0.61427115414E+02  0.94450963540E+02  0.71747432049E+02 0.  0.
       11    1    3    3    0    0 -0.76287149899E+01  0.34974658549E+02 -0.33800726576E+02  0.49233252483E+02  0.00000000000E+00 0. -1.
      -12    1    3    3    0    0  0.76287149899E+01 -0.34974658549E+02 -0.27626388838E+02  0.45217711057E+02  0.00000000000E+00 0.  1.
</event>
<event>
 5   1  0.6181100E+00  0.7976181E+02  0.7957747E-01  0.1328206E+00
       -2   -1    0    0    0  501  0.00000000000E+00  0.00000000000E+00  0.67894820710E+03  0.67894820710E+03  0.00000000000E+00 0.  1.
        1   -1    0    0  501    0  0.00000000000E+00  0.00000000000E+00 -0.23425740798E+01  0.23425740798E+01  0.00000000000E+00 0. -1.
      -24    2    1    2    0    0  0.00000000000E+00  0.00000000000E+00  0.67660563302E+03  0.68129078118E+03  0.79761807189E+02 0.  0.
       11    1    3    3    0    0 -0.10094287993E+02 -0.32397173050E+02  0.15933406581E+03  0.16290738473E+03  0.00000000000E+00 0. -1.
      -12    1    3    3    0    0  0.10094287993E+02  0.32397173050E+02  0.51727156720E+03  0.51838339644E+03  0.00000000000E+00 0.  1.
</event>
<event>
 6   2  0.6181100E+00  0.8796845E+02  0.7957747E-01  0.1307455E+00
       -2   -1    0    0    0  501  0.00000000000E+00  0.00000000000E+00  0.65548020873E+02  0.65548020873E+02  0.00000000000E+00 0.  1.
        1   -1    0    0  502    0  0.00000000000E+00  0.00000000000E+00 -0.62212049056E+02  0.62212049056E+02  0.00000000000E+00 0. -1.
      -24    2    1    2    0    0  0.35927690067E+02  0.14582485386E+02 -0.49600908897E+01  0.88108179054E+02  0.78962022017E+02 0.  0.
       11    1    3    3    0    0  0.34635918161E+01  0.38421790086E+02 -0.21960675977E+02  0.44390333531E+02  0.00000000000E+00 0. -1.
      -12    1    3    3    0    0  0.32464098251E+02 -0.23839304700E+02  0.17000585087E+02  0.43717845522E+02  0.00000000000E+00 0.  1.
       21    1    1    2  502  501 -0.35927690067E+02 -0.14582485386E+02  0.82960627069E+01  0.39651890876E+02  0.00000000000E+00 0.  1.
</event>
<event>
 4   3  0.6181100E+00  0.2040406E+03  0.7957747E-01  0.1152732E+00
       21   -1    0    0  501  502  0.00000000000E+00  0.00000000000E+00  0.33507895700E+03  0.33507895700E+03  0.00000000000E+00 0.  1.
       21   -1    0    0  502  503  0.00000000000E+00  0.00000000000E+00 -0.16833402944E+03  0.16833402944E+03  0.00000000000E+00 0. -1.
        6    1    1    2  501    0  0.16812845687E+02  0.10686860573E+03  0.21218663696E+03  0.29437346955E+03  0.17300000000E+03 0.  1.
       -6    1    1    2    0  503 -0.16812845687E+02 -0.10686860573E+03 -0.45441709400E+02  0.20903951690E+03  0.17300000000E+03 0. -1.
</event>
<event>
 5   1  0.6181100E+00  0.8133752E+02  0.7957747E-01  0.1324009E+00
       -2   -1    0    0    0  501  0.00000000000E+00  0.00000000000E+00  0.11312790539E+03  0.11312790539E+03  0.00000000000E+00 0.  1.
        1   -1    0    0  501    0  0.00000000000E+00  0.00000000000E+00 -0.14620159669E+02  0.14620159669E+02  0.00000000000E+00 0. -1.
      -24    2    1    2    0    0  0.00000000000E+00  0.00000000000E+00  0.98507745725E+02  0.12774806506E+03  0.81337519999E+02 0.  0.
       11    1    3    3    0    0 -0.57677173733E+01 -0.26162839804E+02  0.11981876020E+01  0.26817837419E+02  0.00000000000E+00 0. -1.
      -12    1    3    3    0    0  0.57677173733E+01  0.26162839804E+02  0.97309558123E+02  0.10093022764E+03  0.00000000000E+00 0.  1.
</event>
<event>
 5   1  0.6181100E+00  0.7523186E+02  0.7957747E-01  0.1340913E+00
       -2   -1    0    0    0  501  0.00000000000E+00  0.00000000000E+00  0.11304201981E+03  0.11304201981E+03  0.00000000000E+00 0.  1.
        1   -1    0    0  501    0  0.00000000000E+00  0.00000000000E+00 -0.12517097890E+02  0.12517097890E+02  0.00000000000E+00 0. -1.
      -24    2    1    2    0    0  0.00000000000E+00  0.00000000000E+00  0.10052492192E+03  0.12555911770E+03  0.75231855690E+02 0.  0.
       11    1    3    3    0    0  0.28798528816E+02 -0.14840960509E+02  0.18361759087E+02  0.37239274530E+02  0.00000000000E+00 0. -1.
      -12    1    3    3    0    0 -0.28798528816E+02  0.14840960509E+02  0.82163162833E+02  0.88319843170E+02  0.00000000000E+00 0.  1.
</event>
<event>
 6   2  0.6181100E+00  0.8720837E+02  0.7957747E-01  0.1309267E+00
       21   -1    0    0  501  502  0.00000000000E+00  0.00000000000E+00  0.62190291017E+01  0.62190291017E+01  0.00000000000E+00 0.  1.
        1   -1    0    0  502    0  0.00000000000E+00  0.00000000000E+00 -0.63917657396E+03  0.63917657396E+03  0.00000000000E+00 0. -1.
      -24    2    1    2    0    0  0.33926002801E+02  0.52563707334E+01 -0.52244032648E+03  0.52966894815E+03  0.80166681363E+02 0.  0.
       11    1    3    3    0    0  0.58630768539E+02 -0.79784824172E+01 -0.35062325366E+03  0.35558105856E+03  0.00000000000E+00 0. -1.
      -12    1    3    3    0    0 -0.24704765738E+02  0.13234853151E+02 -0.17181707282E+03  0.17408788959E+03  0.00000000000E+00 0.  1.
        2    1    1    2  501    0 -0.33926002801E+02 -0.52563707334E+01 -0.11051721838E+03  0.11572665491E+03  0.00000000000E+00 0. -1.
</event>
<event>
 5   1  0.6181100E+00  0.8049491E+02  0.7957747E-01  0.1326240E+00
       -4   -1    0    0    0  501  0.00000000000E+00  0.00000000000E+00  0.73551794866E+02  0.73551794866E+02  0.00000000000E+00 0.  1.
        3   -1    0    0  501    0  0.00000000000E+00  0.00000000000E+00 -0.22023357529E+02  0.22023357529E+02  0.00000000000E+00 0. -1.
      -24    2    1    2    0    0  0.00000000000E+00  0.00000000000E+00  0.51528437337E+02  0.95575152395E+02  0.80494906056E+02 0.  0.
       11    1    3    3    0    0  0.94795165942E+01 -0.20661154581E+02 -0.13671212108E+02  0.26526337553E+02  0.00000000000E+00 0. -1.
      -12    1    3    3    0    0 -0.94795165942E+01  0.20661154581E+02  0.65199649444E+02  0.69048814842E+02  0.00000000000E+00 0.  1.
</event>
<event>
 5   1  0.6181100E+00  0.8074536E+02  0.7957747E-01  0.1325573E+00
       -2   -1    0    0    0  501  0.00000000000E+00  0.00000000000E+00  0.21945738453E+02  0.21945738453E+02  0.00000000000E+00 0.  1.
        1   -1    0    0  501    0  0.00000000000E+00  0.00000000000E+00 -0.74271966200E+02  0.74271966200E+02  0.00000000000E+00 0. -1.
      -24    2    1    2    0    0  0.00000000000E+00  0.00000000000E+00 -0.52326227747E+02  0.96217704654E+02  0.80745356390E+02 0.  0.
       11    1    3    3    0    0 -0.14238155700E+02  0.56945090156E+01 -0.70666545928E+02  0.72311224744E+02  0.00000000000E+00 0. -1.
      -12    1    3    3    0    0  0.14238155700E+02 -0.56945090156E+01  0.18340318181E+02  0.23906479909E+02  0.00000000000E+00 0.  1.
</event>
<event>
 5   1  0.6181100E+00  0.8109379E+02  0.7957747E-01  0.1324651E+00
       -2   -1    0    0    0  501  0.00000000000E+00  0.00000000000E+00  0.26679862085E+02  0.26679862085E+02  0.00000000000E+00 0.  1.
        1   -1    0    0  501    0  0.00000000000E+00  0.00000000000E+00 -0.61621403492E+02  0.61621403492E+02  0.00000000000E+00 0. -1.
      -24    2    1    2    0    0  0.00000000000E+00  0.00000000000E+00 -0.34941541408E+02  0.88301265577E+02  0.81093786362E+02 0.  0.
       11    1    3    3    0    0  0.15857570622E+02 -0.36565068623E+02 -0.93526912169E+01  0.40938241565E+02  0.00000000000E+00 0. -1.
      -12    1    3    3    0    0 -0.15857570622E+02  0.36565068623E+02 -0.25588850191E+02  0.47363024012E+02  0.00000000000E+00 0.  1.
</event>
<event>
 5   1  0.6181100E+00  0.7858372E+02  0.7957747E-01  0.1331417E+00
       -2   -1    0    0    0  501  0.00000000000E+00  0.00000000000E+00  0.26981956440E+02  0.26981956440E+02  0.00000000000E+00 0.  1.
        1   -1    0    0  501    0  0.00000000000E+00  0.00000000000E+00 -0.57217874023E+02  0.57217874023E+02  0.00000000000E+00 0. -1.
      -24    2    1    2    0    0  0.00000000000E+00  0.00000000000E+00 -0.30235917583E+02  0.84199830464E+02  0.78583718021E+02 0.  0.
       11    1    3    3    0    0  0.32755273259E+02  0.14681214994E+02 -0.32241463148E+02  0.48248916526E+02  0.00000000000E+00 0. -1.
      -12    1    3    3    0    0 -0.32755273259E+02 -0.14681214994E+02  0.20055455651E+01  0.35950913938E+02  0.00000000000E+00 0.  1.
</event>
<event>
 5   1  0.6181100E+00  0.8194297E+02  0.7957747E-01  0.1322424E+00
        3   -1    0    0  501    0  0.00000000000E+00  0.00000000000E+00  0.40911677173E+02  0.40911677173E+02  0.00000000000E+00 0. -1.
       -4   -1    0    0    0  501  0.00000000000E+00  0.00000000000E+00 -0.41031375322E+02  0.41031375322E+02  0.00000000000E+00 0.  1.
      -24    2    1    2    0    0  0.00000000000E+00  0.00000000000E+00 -0.11969814852E+00  0.81943052495E+02  0.81942965070E+02 0.  0.
       11    1    3    3    0    0  0.38319601158E+02  0.84752875079E+01  0.11706218463E+02  0.40954338988E+02  0.00000000000E+00 0. -1.
      -12    1    3    3    0    0 -0.38319601158E+02 -0.84752875079E+01 -0.11825916611E+02  0.40988713507E+02  0.00000000000E+00 0.  1.
</event>
<event>
 5   1  0.6181100E+00  0.7949233E+02  0.7957747E-01  0.1328935E+00
       -2   -1    0    0    0  501  0.00000000000E+00  0.00000000000E+00  0.35123497846E+02  0.35123497846E+02  0.00000000000E+00 0.  1.
        1   -1    0    0  501    0  0.00000000000E+00  0.00000000000E+00 -0.44977224249E+02  0.44977224249E+02  0.00000000000E+00 0. -1.
      -24    2    1    2    0    0  0.00000000000E+00  0.00000000000E+00 -0.98537264032E+01  0.80100722095E+02  0.79492325139E+02 0.  0.
       11    1    3    3    0    0 -0.37886887117E+02  0.84358090248E+00 -0.17003143888E+02  0.41535945231E+02  0.00000000000E+00 0. -1.
      -12    1    3    3    0    0  0.37886887117E+02 -0.84358090248E+00  0.71494174847E+01  0.38564776864E+02  0.00000000000E+00 0.  1.
</event>
<event>
 5   1  0.6181100E+00  0.8238679E+02  0.7957747E-01  0.1321273E+00
       -2   -1    0    0    0  501  0.00000000000E+00  0.00000000000E+00  0.11660758399E+03  0.11660758399E+03  0.00000000000E+00 0.  1.
        1   -1    0    0  501    0  0.00000000000E+00  0.00000000000E+00 -0.14552190342E+02  0.14552190342E+02  0.00000000000E+00 0. -1.
      -24    2    1    2    0    0  0.00000000000E+00  0.00000000000E+00  0.10205539364E+03  0.13115977433E+03  0.82386789173E+02 0.  0.
       11    1    3    3    0    0 -0.36198399373E+02 -0.19032623721E+02  0.43174943704E+02  0.59469661566E+02  0.00000000000E+00 0. -1.
      -12    1    3    3    0    0  0.36198399373E+02  0.19032623721E+02  0.58880449940E+02  0.71690112763E+02  0.00000000000E+00 0.  1.
</event>
<event>
 5   1  0.6181100E+00  0.8166324E+02  0.7957747E-01  0.1323154E+00
        1   -1    0    0  501    0  0.00000000000E+00  0.00000000000E+00  0.78023757212E+01  0.78023757212E+01  0.00000000000E+00 0. -1.
       -2   -1    0    0    0  501  0.00000000000E+00  0.00000000000E+00 -0.21368124004E+03  0.21368124004E+03  0.00000000000E+00 0.  1.
      -24    2    1    2    0    0  0.00000000000E+00  0.00000000000E+00 -0.20587886432E+03  0.22148361577E+03  0.81663243124E+02 0.  0.
       11    1    3    3    0    0 -0.30900572363E+02 -0.74276992120E+01 -0.33410511518E+02  0.46111586048E+02  0.00000000000E+00 0. -1.
      -12    1    3    3    0    0  0.30900572363E+02  0.74276992120E+01 -0.17246835281E+03  0.17537202972E+03  0.00000000000E+00 0.  1.
</event>
<event>
 5   1  0.6181100E+00  0.8005649E+02  0.7957747E-01  0.1327413E+00
       -2   -1    0    0    0  501  0.00000000000E+00  0.00000000000E+00  0.10700566605E+04  0.10700566605E+04  0.00000000000E+00 0.  1.
        1   -1    0    0  501    0  0.00000000000E+00  0.00000000000E+00 -0.14973602530E+01  0.14973602530E+01  0.00000000000E+00 0. -1.
      -24    2    1    2    0    0  0.00000000000E+00  0.00000000000E+00  0.10685593003E+04  0.10715540208E+04  0.80056487855E+02 0.  0.
       11    1    3    3    0    0 -0.16046712213E+02 -0.64454251748E+01  0.51080260205E+02  0.53928039656E+02  0.00000000000E+00 0. -1.
      -12    1    3    3    0    0  0.16046712213E+02  0.64454251748E+01  0.10174790401E+04  0.10176259811E+04  0.00000000000E+00 0.  1.
</event>
<event>
 5   1  0.6181100E+00  0.7973229E+02  0.7957747E-01  0.1328286E+00
       -2   -1    0    0    0  501  0.00000000000E+00  0.00000000000E+00  0.13149111698E+03  0.13149111698E+03  0.00000000000E+00 0.  1.
        1   -1    0    0  501    0  0.00000000000E+00  0.00000000000E+00 -0.12086821243E+02  0.12086821243E+02  0.00000000000E+00 0. -1.
      -24    2    1    2    0    0  0.00000000000E+00  0.00000000000E+00  0.11940429573E+03  0.14357793822E+03  0.79732292729E+02 0.  0.
       11    1    3    3    0    0 -0.61744637274E+01 -0.38881783871E+02  0.48400018640E+02  0.62389734121E+02  0.00000000000E+00 0. -1.
      -12    1    3    3    0    0  0.61744637274E+01  0.38881783871E+02  0.71004277095E+02  0.81188204100E+02  0.00000000000E+00 0.  1.
</event>
<event>
 5   1  0.6181100E+00  0.8112751E+02  0.7957747E-01  0.1324562E+00
        1   -1    0    0  501    0  0.00000000000E+00  0.00000000000E+00  0.15293107256E+03  0.15293107256E+03  0.00000000000E+00 0. -1.
       -2   -1    0    0    0  501  0.00000000000E+00  0.00000000000E+00 -0.10759215286E+02  0.10759215286E+02  0.00000000000E+00 0.  1.
      -24    2    1    2    0    0  0.00000000000E+00  0.00000000000E+00  0.14217185728E+03  0.16369028785E+03  0.81127512808E+02 0.  0.
       11    1    3    3    0    0  0.27500613292E+02  0.20616981200E+02  0.11455183015E+03  0.11959709627E+03  0.00000000000E+00 0. -1.
      -12    1    3    3    0    0 -0.27500613292E+02 -0.20616981200E+02  0.27620027130E+02  0.44093191582E+02  0.00000000000E+00 0.  1.
</event>
<event>
 5   1  0.6181100E+00  0.8540634E+02  0.7957747E-01  0.1313649E+00
        3   -1    0    0  501    0  0.00000000000E+00  0.00000000000E+00  0.10560535349E+03  0.10560535349E+03  0.00000000000E+00 0. -1.
       -4   -1    0    0    0  501  0.00000000000E+00  0.00000000000E+00 -0.17267690837E+02  0.17267690837E+02  0.00000000000E+00 0.  1.
      -24    2    1    2    0    0  0.00000000000E+00  0.00000000000E+00  0.88337662648E+02  0.12287304432E+03  0.85406336877E+02 0.  0.
       11    1    3    3    0    0 -0.31862723601E+02  0.22803545035E+02  0.68597975697E+02  0.78999475259E+02  0.00000000000E+00 0. -1.
      -12    1    3    3    0    0  0.31862723601E+02 -0.22803545035E+02  0.19739686951E+02  0.43873569063E+02  0.00000000000E+00 0.  1.
</event>
<event>
 5   1  0.6181100E+00  0.8382789E+02  0.7957747E-01  0.1317589E+00
        1   -1    0    0  501    0  0.00000000000E+00  0.00000000000E+00  0.55003864711E+02  0.55003864711E+02  0.00000000000E+00 0. -1.
       -2   -1    0    0    0  501  0.00000000000E+00  0.00000000000E+00 -0.31939184764E+02  0.31939184764E+02  0.00000000000E+00 0.  1.
      -24    2    1    2    0    0  0.00000000000E+00  0.00000000000E+00  0.23064679947E+02  0.86943049476E+02  0.83827885522E+02 0.  0.
       11    1    3    3    0    0 -0.70580635554E+01  0.19652885490E+02  0.49224653185E+02  0.53470727042E+02  0.00000000000E+00 0. -1.
      -12    1    3    3    0    0  0.70580635554E+01 -0.19652885490E+02 -0.26159973238E+02  0.33472322433E+02  0.00000000000E+00 0.  1.
</event>
<event>
 5   1  0.6181100E+00  0.7944694E+02  0.7957747E-01  0.1329058E+00
       -4   -1    0    0    0  501  0.00000000000E+00  0.00000000000E+00  0.11849692192E+03  0.11849692192E+03  0.00000000000E+00 0.  1.
        3   -1    0    0  501    0  0.00000000000E+00  0.00000000000E+00 -0.13316414075E+02  0.13316414075E+02  0.00000000000E+00 0. -1.
      -24    2    1    2    0    0  0.00000000000E+00  0.00000000000E+00  0.10518050785E+03  0.13181333600E+03  0.79446940255E+02 0.  0.
       11    1    3    3    0    0 -0.69567189176E+01  0.23443363015E+02  0.65193691633E+00  0.24462465724E+02  0.00000000000E+00 0. -1.
      -12    1    3    3    0    0  0.69567189176E+01 -0.23443363015E+02  0.10452857093E+03  0.10735087027E+03  0.00000000000E+00 0.  1.
</event>
<event>
 5   2  0.6181100E+00  0.1212353E+03  0.7957747E-01  0.1243808E+00
       -2   -1    0    0    0  501  0.00000000000E+00  0.00000000000E+00  0.22660475908E+03  0.22660475908E+03  0.00000000000E+00 0.  1.
        1   -1    0    0  502    0  0.00000000000E+00  0.00000000000E+00 -0.28736076526E+02  0.28736076526E+02  0.00000000000E+00 0. -1.
       11    1    1    2    0    0  0.44099594019E+02  0.31788335251E+02  0.12716661251E+02  0.55829973348E+02  0.00000000000E+00 0. -1.
      -12    1    1    2    0    0 -0.32881304821E+02  0.41564648042E+01  0.11750840154E+03  0.12209291887E+03  0.00000000000E+00 0.  1.
       21    1    1    2  502  501 -0.11218289198E+02 -0.35944800056E+02  0.67643619769E+02  0.77417943392E+02  0.00000000000E+00 0.  1.
</event>
<event>
 5   1  0.6181100E+00  0.8227431E+02  0.7957747E-01  0.1321564E+00
        3   -1    0    0  501    0  0.00000000000E+00  0.00000000000E+00  0.54293961428E+01  0.54293961428E+01  0.00000000000E+00 0. -1.
       -4   -1    0    0    0  501  0.00000000000E+00  0.00000000000E+00 -0.31168576660E+03  0.31168576660E+03  0.00000000000E+00 0.  1.
      -24    2    1    2    0    0  0.00000000000E+00  0.00000000000E+00 -0.30625637045E+03  0.31711516274E+03  0.82274309452E+02 0.  0.
       11    1    3    3    0    0 -0.93423462306E+01 -0.39157157340E+02 -0.18576604807E+03  0.19007784463E+03  0.00000000000E+00 0. -1.
      -12    1    3    3    0    0  0.93423462306E+01  0.39157157340E+02 -0.12049032238E+03  0.12703731811E+03  0.00000000000E+00 0.  1.
</event>
<event>
 5   1  0.6181100E+00  0.8074236E+02  0.7957747E-01  0.1325581E+00
        1   -1    0    0  501    0  0.00000000000E+00  0.00000000000E+00  0.50375195211E+02  0.50375195211E+02  0.00000000000E+00 0. -1.
       -2   -1    0    0    0  501  0.00000000000E+00  0.00000000000E+00 -0.32353864054E+02  0.32353864054E+02  0.00000000000E+00 0.  1.
      -24    2    1    2    0    0  0.00000000000E+00  0.00000000000E+00  0.18021331157E+02  0.82729059265E+02  0.80742361064E+02 0.  0.
       11    1    3    3    0    0  0.16972389043E+01 -0.36441822056E+02  0.26726125647E+02  0.45223586841E+02  0.00000000000E+00 0. -1.
      -12    1    3    3    0    0 -0.16972389043E+01  0.36441822056E+02 -0.87047944899E+01  0.37505472424E+02  0.00000000000E+00 0.  1.
</event>
<event>
 5   1  0.6181100E+00  0.7891339E+02  0.7957747E-01  0.1330512E+00
        1   -1    0    0  501    0  0.00000000000E+00  0.00000000000E+00  0.10234734915E+03  0.10234734915E+03  0.00000000000E+00 0. -1.
       -2   -1    0    0    0  501  0.00000000000E+00  0.00000000000E+00 -0.15211245696E+02  0.15211245696E+02  0.00000000000E+00 0.  1.
      -24    2    1    2    0    0  0.00000000000E+00  0.00000000000E+00  0.87136103458E+02  0.11755859485E+03  0.78913387313E+02 0.  0.
       11    1    3    3    0    0 -0.32785624399E+02 -0.16211216190E+02  0.65620387531E+02  0.75124802544E+02  0.00000000000E+00 0. -1.
      -12    1    3    3    0    0  0.32785624399E+02  0.16211216190E+02  0.21515715927E+02  0.42433792305E+02  0.00000000000E+00 0.  1.
</event>
<event>
 5   1  0.6181100E+00  0.8158950E+02  0.7957747E-01  0.1323347E+00
        1   -1    0    0  501    0  0.00000000000E+00  0.00000000000E+00  0.98227521415E+02  0.98227521415E+02  0.00000000000E+00 0. -1.
       -2   -1    0    0    0  501  0.00000000000E+00  0.00000000000E+00 -0.16942417553E+02  0.16942417553E+02  0.00000000000E+00 0.  1.
      -24    2    1    2    0    0  0.00000000000E+00  0.00000000000E+00  0.81285103861E+02  0.11516993897E+03  0.81589501360E+02 0.  0.
       11    1    3    3    0    0 -0.27161129656E+02  0.12492302457E+02  0.79823111362E+02  0.85237982685E+02  0.00000000000E+00 0. -1.
      -12    1    3    3    0    0  0.27161129656E+02 -0.12492302457E+02  0.14619924999E+01  0.29931956283E+02  0.00000000000E+00 0.  1.
</event>
<event>
 6   2  0.6181100E+00  0.1184325E+03  0.7957747E-01  0.1248239E+00
       21   -1    0    0  501  502  0.00000000000E+00  0.00000000000E+00  0.18405400690E+03  0.18405400690E+03  0.00000000000E+00 0. -1.
        3   -1    0    0  502    0  0.00000000000E+00  0.00000000000E+00 -0.16544506022E+03  0.16544506022E+03  0.00000000000E+00 0. -1.
      -24    2    1    2    0    0  0.80357313073E+02  0.18793645936E+02 -0.13225895758E+03  0.17753504929E+03  0.84945647186E+02 0.  0.
       11    1    3    3    0    0  0.31465132750E+02 -0.33692191598E+02 -0.43161863923E+02  0.63151918822E+02  0.00000000000E+00 0. -1.
      -12    1    3    3    0    0  0.48892180323E+02  0.52485837534E+02 -0.89097093653E+02  0.11438313047E+03  0.00000000000E+00 0.  1.
        4    1    1    2  501    0 -0.80357313073E+02 -0.18793645936E+02  0.15086790426E+03  0.17196401783E+03  0.00000000000E+00 0. -1.
</event>
<event>
 5   1  0.6181100E+00  0.7974080E+02  0.7957747E-01  0.1328263E+00
       -2   -1    0    0    0  501  0.00000000000E+00  0.00000000000E+00  0.18997711226E+04  0.18997711226E+04  0.00000000000E+00 0.  1.
        1   -1    0    0  501    0  0.00000000000E+00  0.00000000000E+00 -0.83675797402E+00  0.83675797402E+00  0.00000000000E+00 0. -1.
      -24    2    1    2    0    0  0.00000000000E+00  0.00000000000E+00  0.18989343647E+04  0.19006078806E+04  0.79740795975E+02 0.  0.
       11    1    3    3    0    0 -0.17598102861E+02  0.23162320038E+00  0.96759299798E+02  0.98346880840E+02  0.00000000000E+00 0. -1.
      -12    1    3    3    0    0  0.17598102861E+02 -0.23162320038E+00  0.18021750649E+04  0.18022609998E+04  0.00000000000E+00 0.  1.
</event>
<event>
 5   1  0.6181100E+00  0.8082067E+02  0.7957747E-01  0.1325374E+00
       -2   -1    0    0    0  501  0.00000000000E+00  0.00000000000E+00  0.69529531987E+03  0.69529531987E+03  0.00000000000E+00 0.  1.
        1   -1    0    0  501    0  0.00000000000E+00  0.00000000000E+00 -0.23486352858E+01  0.23486352858E+01  0.00000000000E+00 0. -1.
      -24    2    1    2    0    0  0.00000000000E+00  0.00000000000E+00  0.69294668458E+03  0.69764395515E+03  0.80820668701E+02 0.  0.
       11    1    3    3    0    0  0.33815355928E+02 -0.44214894029E+01  0.15934257560E+03  0.16295117141E+03  0.00000000000E+00 0. -1.
      -12    1    3    3    0    0 -0.33815355928E+02  0.44214894029E+01  0.53360410898E+03  0.53469278374E+03  0.00000000000E+00 0.  1.
</event>
<event>
 4   3  0.6181100E+00  0.2249390E+03  0.7957747E-01  0.1137136E+00
       21   -1    0    0  503  502  0.00000000000E+00  0.00000000000E+00  0.47107030268E+02  0.47107030268E+02  0.00000000000E+00 0. -1.
       21   -1    0    0  501  503  0.00000000000E+00  0.00000000000E+00 -0.10746408613E+04  0.10746408613E+04  0.00000000000E+00 0. -1.
        6    1    1    2  501    0 -0.96379180303E+02 -0.10667529505E+03 -0.52637343610E+03  0.57242166207E+03  0.17300000000E+03 0. -1.
       -6    1    1    2    0  502  0.96379180303E+02  0.10667529505E+03 -0.50116039494E+03  0.54932622951E+03  0.17300000000E+03 0. -1.
</event>
<event>
 5   1  0.6181100E+00  0.7313133E+02  0.7957747E-01  0.1347155E+00
        3   -1    0    0  501    0  0.00000000000E+00  0.00000000000E+00  0.75570421648E+02  0.75570421648E+02  0.00000000000E+00 0. -1.
       -4   -1    0    0    0  501  0.00000000000E+00  0.00000000000E+00 -0.17692738841E+02  0.17692738841E+02  0.00000000000E+00 0.  1.
      -24    2    1    2    0    0  0.00000000000E+00  0.00000000000E+00  0.57877682807E+02  0.93263160489E+02  0.73131326647E+02 0.  0.
       11    1    3    3    0    0  0.12913166058E+02 -0.47295729799E+01  0.72146844325E+02  0.73445802223E+02  0.00000000000E+00 0. -1.
      -12    1    3    3    0    0 -0.12913166058E+02  0.47295729799E+01 -0.14269161517E+02  0.19817358265E+02  0.00000000000E+00 0.  1.
</event>
<event>
 5   1  0.6181100E+00  0.8123315E+02  0.7957747E-01  0.1324283E+00
       -4   -1    0    0    0  501  0.00000000000E+00  0.00000000000E+00  0.14383227873E+02  0.14383227873E+02  0.00000000000E+00 0.  1.
        3   -1    0    0  501    0  0.00000000000E+00  0.00000000000E+00 -0.11469652853E+03  0.11469652853E+03  0.00000000000E+00 0. -1.
      -24    2    1    2    0    0  0.00000000000E+00  0.00000000000E+00 -0.10031330066E+03  0.12907975640E+03  0.81233153481E+02 0.  0.
       11    1    3    3    0    0 -0.27069686159E+02  0.26387388968E+01 -0.98090207917E+02  0.10179105924E+03  0.00000000000E+00 0. -1.
      -12    1    3    3    0    0  0.27069686159E+02 -0.26387388968E+01 -0.22230927422E+01  0.27288697166E+02  0.00000000000E+00 0.  1.
</event>
<event>
 5   1  0.6181100E+00  0.7895258E+02  0.7957747E-01  0.1330405E+00
       -2   -1    0    0    0  501  0.00000000000E+00  0.00000000000E+00  0.24974480568E+03  0.24974480568E+03  0.00000000000E+00 0.  1.
        1   -1    0    0  501    0  0.00000000000E+00  0.00000000000E+00 -0.62398795364E+01  0.62398795364E+01  0.00000000000E+00 0. -1.
      -24    2    1    2    0    0  0.00000000000E+00  0.00000000000E+00  0.24350492615E+03  0.25598468522E+03  0.78952580763E+02 0.  0.
       11    1    3    3    0    0 -0.26719680747E+02  0.23472245190E+02  0.66207560411E+02  0.75155363675E+02  0.00000000000E+00 0. -1.
      -12    1    3    3    0    0  0.26719680747E+02 -0.23472245190E+02  0.17729736573E+03  0.18082932154E+03  0.00000000000E+00 0.  1.
</event>
<event>
 4   3  0.6181100E+00  0.2371934E+03  0.7957747E-01  0.1128828E+00
       21   -1    0    0  503  502  0.00000000000E+00  0.00000000000E+00  0.14291043286E+03  0.14291043286E+03  0.00000000000E+00 0.  1.
       21   -1    0    0  501  503  0.00000000000E+00  0.00000000000E+00 -0.79372429825E+03  0.79372429825E+03  0.00000000000E+00 0. -1.
        6    1    1    2  501    0 -0.36435827878E+02  0.15812700859E+03 -0.65788304660E+03  0.69933598749E+03  0.17300000000E+03 0. -1.
       -6    1    1    2    0  502  0.36435827878E+02 -0.15812700859E+03  0.70691812144E+01  0.23729874362E+03  0.17300000000E+03 0.  1.
</event>
<event>
 5   1  0.6181100E+00  0.8659153E+02  0.7957747E-01  0.1310754E+00
       -2   -1    0    0    0  501  0.00000000000E+00  0.00000000000E+00  0.20972152426E+03  0.20972152426E+03  0.00000000000E+00 0.  1.
        1   -1    0    0  501    0  0.00000000000E+00  0.00000000000E+00 -0.89381534426E+01  0.89381534426E+01  0.00000000000E+00 0. -1.
      -24    2    1    2    0    0  0.00000000000E+00  0.00000000000E+00  0.20078337082E+03  0.21865967771E+03  0.86591527624E+02 0.  0.
       11    1    3    3    0    0 -0.11376193663E+02 -0.42085338349E+01 -0.45598891181E+01  0.12958477074E+02  0.00000000000E+00 0. -1.
      -12    1    3    3    0    0  0.11376193663E+02  0.42085338349E+01  0.20534325994E+03  0.20570120063E+03  0.00000000000E+00 0.  1.
</event>
<event>
 6   2  0.6181100E+00  0.1313646E+03  0.7957747E-01  0.1228842E+00
       21   -1    0    0  501  502  0.00000000000E+00  0.00000000000E+00  0.18906893958E+03  0.18906893958E+03  0.00000000000E+00 0.  1.
       -2   -1    0    0    0  501  0.00000000000E+00  0.00000000000E+00 -0.10666718201E+03  0.10666718201E+03  0.00000000000E+00 0.  1.
      -24    2    1    2    0    0 -0.83649950104E+02 -0.62182979292E+02 -0.37743953502E+02  0.13667943687E+03  0.79953895285E+02 0.  0.
       11    1    3    3    0    0 -0.42961165623E+02 -0.31804169738E+01  0.17184577918E+02  0.46379807266E+02  0.00000000000E+00 0. -1.
      -12    1    3    3    0    0 -0.40688784481E+02 -0.59002562319E+02 -0.54928531421E+02  0.90299629605E+02  0.00000000000E+00 0.  1.
       -1    1    1    2    0  502  0.83649950104E+02  0.62182979292E+02  0.12014571107E+03  0.15905668472E+03  0.00000000000E+00 0.  1.
</event>
<event>
 5   2  0.6181100E+00  0.2020866E+03  0.7957747E-01  0.1154295E+00
       -2   -1    0    0    0  501  0.00000000000E+00  0.00000000000E+00  0.90160379643E+02  0.90160379643E+02  0.00000000000E+00 0.  1.
        1   -1    0    0  502    0  0.00000000000E+00  0.00000000000E+00 -0.84623456930E+03  0.84623456930E+03  0.00000000000E+00 0. -1.
       11    1    1    2    0    0  0.98182032042E+02  0.87321368036E+02 -0.53383881445E+03  0.54977141845E+03  0.00000000000E+00 0. -1.
      -12    1    1    2    0    0 -0.34874667133E+02  0.59774161131E+02 -0.21550266529E+03  0.22634175818E+03  0.00000000000E+00 0.  1.
       21    1    1    2  502  501 -0.63307364910E+02 -0.14709552917E+03 -0.67327099104E+01  0.16028177231E+03  0.00000000000E+00 0.  1.
</event>
<event>
 6   2  0.6181100E+00  0.9275740E+02  0.7957747E-01  0.1296491E+00
       21   -1    0    0  501  502  0.00000000000E+00  0.00000000000E+00  0.52539206052E+03  0.52539206052E+03  0.00000000000E+00 0. -1.
       -4   -1    0    0    0  501  0.00000000000E+00  0.00000000000E+00 -0.99822994537E+01  0.99822994537E+01  0.00000000000E+00 0.  1.
      -24    2    1    2    0    0 -0.53945160821E+01 -0.21383559658E+02  0.21499487175E+03  0.23415108207E+03  0.90097596687E+02 0.  0.
       11    1    3    3    0    0 -0.20372853491E+02 -0.53533201839E+02  0.13452710629E+03  0.14621353968E+03  0.00000000000E+00 0. -1.
      -12    1    3    3    0    0  0.14978337409E+02  0.32149642181E+02  0.80467765450E+02  0.87937542384E+02  0.00000000000E+00 0.  1.
       -3    1    1    2    0  502  0.53945160821E+01  0.21383559658E+02  0.30041488932E+03  0.30122327791E+03  0.00000000000E+00 0.  1.
</event>
<event>
 5   1  0.6181100E+00  0.8044159E+02  0.7957747E-01  0.1326382E+00
        1   -1    0    0  501    0  0.00000000000E+00  0.00000000000E+00  0.44937305362E+03  0.44937305362E+03  0.00000000000E+00 0. -1.
       -2   -1    0    0    0  501  0.00000000000E+00  0.00000000000E+00 -0.35999317507E+01  0.35999317507E+01  0.00000000000E+00 0.  1.
      -24    2    1    2    0    0  0.00000000000E+00  0.00000000000E+00  0.44577312187E+03  0.45297298537E+03  0.80441589334E+02 0.  0.
       11    1    3    3    0    0 -0.37955271155E+02 -0.10368156990E+01  0.14817447932E+03  0.15296193617E+03  0.00000000000E+00 0. -1.
      -12    1    3    3    0    0  0.37955271155E+02  0.10368156990E+01  0.29759864255E+03  0.30001104920E+03  0.00000000000E+00 0.  1.
</event>
<event>
 5   1  0.6181100E+00  0.5373479E+02  0.7957747E-01  0.1419044E+00
        3   -1    0    0  501    0  0.00000000000E+00  0.00000000000E+00  0.23957509857E+02  0.23957509857E+02  0.00000000000E+00 0. -1.
       -4   -1    0    0    0  501  0.00000000000E+00  0.00000000000E+00 -0.30130714762E+02  0.30130714762E+02  0.00000000000E+00 0.  1.
      -24    2    1    2    0    0  0.00000000000E+00  0.00000000000E+00 -0.61732049057E+01  0.54088224619E+02  0.53734789323E+02 0.  0.
       11    1    3    3    0    0  0.24826563287E+02  0.97273433474E+01  0.23318728061E+00  0.26665217598E+02  0.00000000000E+00 0. -1.
      -12    1    3    3    0    0 -0.24826563287E+02 -0.97273433474E+01 -0.64063921863E+01  0.27423007021E+02  0.00000000000E+00 0.  1.
</event>
<event>
 5   1  0.6181100E+00  0.7584467E+02  0.7957747E-01  0.1339135E+00
        3   -1    0    0  501    0  0.00000000000E+00  0.00000000000E+00  0.87210059457E+01  0.87210059457E+01  0.00000000000E+00 0. -1.
       -4   -1    0    0    0  501  0.00000000000E+00  0.00000000000E+00 -0.16490109038E+03  0.16490109038E+03  0.00000000000E+00 0.  1.
      -24    2    1    2    0    0  0.00000000000E+00  0.00000000000E+00 -0.15618008443E+03  0.17362209632E+03  0.75844667304E+02 0.  0.
       11    1    3    3    0    0  0.15813589580E+02 -0.15665856851E+01  0.73156768521E+00  0.15907828179E+02  0.00000000000E+00 0. -1.
      -12    1    3    3    0    0 -0.15813589580E+02  0.15665856851E+01 -0.15691165212E+03  0.15771426814E+03  0.00000000000E+00 0.  1.
</event>
<event>
 5   1  0.6181100E+00  0.7880870E+02  0.7957747E-01  0.1330799E+00
       -2   -1    0    0    0  501  0.00000000000E+00  0.00000000000E+00  0.30847136512E+02  0.30847136512E+02  0.00000000000E+00 0.  1.
        1   -1    0    0  501    0  0.00000000000E+00  0.00000000000E+00 -0.50335393298E+02  0.50335393298E+02  0.00000000000E+00 0. -1.
      -24    2    1    2    0    0  0.00000000000E+00  0.00000000000E+00 -0.19488256786E+02  0.81182529809E+02  0.78808698719E+02 0.  0.
       11    1    3    3    0    0  0.18260565626E+02 -0.29232038923E+02 -0.29417624559E+02  0.45313982293E+02  0.00000000000E+00 0. -1.
      -12    1    3    3    0    0 -0.18260565626E+02  0.29232038923E+02  0.99293677725E+01  0.35868547517E+02  0.00000000000E+00 0.  1.
</event>
<event>
 5   1  0.6181100E+00  0.8387369E+02  0.7957747E-01  0.1317473E+00
       -2   -1    0    0    0  501  0.00000000000E+00  0.00000000000E+00  0.35789489387E+02  0.35789489387E+02  0.00000000000E+00 0.  1.
        1   -1    0    0  501    0  0.00000000000E+00  0.00000000000E+00 -0.49140101464E+02  0.49140101464E+02  0.00000000000E+00 0. -1.
      -24    2    1    2    0    0  0.00000000000E+00  0.00000000000E+00 -0.13350612077E+02  0.84929590851E+02  0.83873694084E+02 0.  0.
       11    1    3    3    0    0 -0.24335684507E+02  0.97295853785E+01 -0.39825945740E+02  0.47675951235E+02  0.00000000000E+00 0. -1.
      -12    1    3    3    0    0  0.24335684507E+02 -0.97295853785E+01  0.26475333663E+02  0.37253639616E+02  0.00000000000E+00 0.  1.
</event>
<event>
 5   1  0.6181100E+00  0.7974482E+02  0.7957747E-01  0.1328252E+00
        3   -1    0    0  501    0  0.00000000000E+00  0.00000000000E+00  0.21252106748E+01  0.21252106748E+01  0.00000000000E+00 0. -1.
       -4   -1    0    0    0  501  0.00000000000E+00  0.00000000000E+00 -0.74807127211E+03  0.74807127211E+03  0.00000000000E+00 0.  1.
      -24    2    1    2    0    0  0.00000000000E+00  0.00000000000E+00 -0.74594606143E+03  0.75019648278E+03  0.79744819343E+02 0.  0.
       11    1    3    3    0    0  0.12788257854E+02 -0.24344748128E+02 -0.10135905334E+03  0.10502315932E+03  0.00000000000E+00 0. -1.
      -12    1    3    3    0    0 -0.12788257854E+02  0.24344748128E+02 -0.64458700810E+03  0.64517332346E+03  0.00000000000E+00 0.  1.
</event>
<event>
 6   2  0.6181100E+00  0.1269712E+03  0.7957747E-01  0.1235142E+00
       -2   -1    0    0    0  501  0.00000000000E+00  0.00000000000E+00  0.18587592595E+03  0.18587592595E+03  0.00000000000E+00 0.  1.
       21   -1    0    0  501  502  0.00000000000E+00  0.00000000000E+00 -0.16669640711E+03  0.16669640711E+03  0.00000000000E+00 0.  1.
      -24    2    1    2    0    0  0.71556808649E+02  0.66414468396E+02  0.14537770137E+03  0.19301908255E+03  0.81181473837E+02 0.  0.
       11    1    3    3    0    0  0.20959446390E+02 -0.17615967613E+02  0.20386571340E+02  0.34135509354E+02  0.00000000000E+00 0. -1.
      -12    1    3    3    0    0  0.50597362259E+02  0.84030436009E+02  0.12499113003E+03  0.15888357319E+03  0.00000000000E+00 0.  1.
       -1    1    1    2    0  502 -0.71556808649E+02 -0.66414468396E+02 -0.12619818254E+03  0.15955325052E+03  0.00000000000E+00 0.  1.
</event>
<event>
 5   1  0.6181100E+00  0.7927859E+02  0.7957747E-01  0.1329516E+00
       -2   -1    0    0    0  501  0.00000000000E+00  0.00000000000E+00  0.26966067443E+03  0.26966067443E+03  0.00000000000E+00 0.  1.
        1   -1    0    0  501    0  0.00000000000E+00  0.00000000000E+00 -0.58268553314E+01  0.58268553314E+01  0.00000000000E+00 0. -1.
      -24    2    1    2    0    0  0.00000000000E+00  0.00000000000E+00  0.26383381910E+03  0.27548752976E+03  0.79278590767E+02 0.  0.
       11    1    3    3    0    0  0.34222531356E+02  0.57671650465E+01  0.65362081323E+02  0.74004347980E+02  0.00000000000E+00 0. -1.
      -12    1    3    3    0    0 -0.34222531356E+02 -0.57671650465E+01  0.19847173778E+03  0.20148318178E+03  0.00000000000E+00 0.  1.
</event>
<event>
 5   1  0.6181100E+00  0.7945168E+02  0.7957747E-01  0.1329045E+00
        1   -1    0    0  501    0  0.00000000000E+00  0.00000000000E+00  0.69165950709E+02  0.69165950709E+02  0.00000000000E+00 0. -1.
       -2   -1    0    0    0  501  0.00000000000E+00  0.00000000000E+00 -0.22816751066E+02  0.22816751066E+02  0.00000000000E+00 0.  1.
      -24    2    1    2    0    0  0.00000000000E+00  0.00000000000E+00  0.46349199644E+02  0.91982701775E+02  0.79451677882E+02 0.  0.
       11    1    3    3    0    0 -0.89037931158E+01 -0.24787537317E+02  0.57604673308E+02  0.63340334109E+02  0.00000000000E+00 0. -1.
      -12    1    3    3    0    0  0.89037931158E+01  0.24787537317E+02 -0.11255473665E+02  0.28642367666E+02  0.00000000000E+00 0.  1.
</event>
<event>
 5   1  0.6181100E+00  0.7772932E+02  0.7957747E-01  0.1333786E+00
       -4   -1    0    0    0  501  0.00000000000E+00  0.00000000000E+00  0.98137781921E+01  0.98137781921E+01  0.00000000000E+00 0.  1.
        3   -1    0    0  501    0  0.00000000000E+00  0.00000000000E+00 -0.15391238211E+03  0.15391238211E+03  0.00000000000E+00 0. -1.
      -24    2    1    2    0    0  0.00000000000E+00  0.00000000000E+00 -0.14409860391E+03  0.16372616030E+03  0.77729324685E+02 0.  0.
       11    1    3    3    0    0  0.23441089218E+02  0.30772320804E+01 -0.13702327064E+03  0.13904794395E+03  0.00000000000E+00 0. -1.
      -12    1    3    3    0    0 -0.23441089218E+02 -0.30772320804E+01 -0.70753332752E+01  0.24678216345E+02  0.00000000000E+00 0.  1.
</event>
<event>
 5   1  0.6181100E+00  0.7970391E+02  0.7957747E-01  0.1328363E+00
       -4   -1    0    0    0  501  0.00000000000E+00  0.00000000000E+00  0.32417961160E+03  0.32417961160E+03  0.00000000000E+00 0.  1.
        3   -1    0    0  501    0  0.00000000000E+00  0.00000000000E+00 -0.48990695581E+01  0.48990695581E+01  0.00000000000E+00 0. -1.
      -24    2    1    2    0    0  0.00000000000E+00  0.00000000000E+00  0.31928054204E+03  0.32907868116E+03  0.79703913744E+02 0.  0.
       11    1    3    3    0    0  0.78681177153E+01  0.27673294345E+02  0.45783652876E+02  0.54072741441E+02  0.00000000000E+00 0. -1.
      -12    1    3    3    0    0 -0.78681177153E+01 -0.27673294345E+02  0.27349688916E+03  0.27500593972E+03  0.00000000000E+00 0.  1.
</event>
<event>
 4   3  0.6181100E+00  0.1943558E+03  0.7957747E-01  0.1160671E+00
       21   -1    0    0  501  502  0.00000000000E+00  0.00000000000E+00  0.23652940019E+04  0.23652940019E+04  0.00000000000E+00 0. -1.
       21   -1    0    0  502  503  0.00000000000E+00  0.00000000000E+00 -0.18951155041E+02  0.18951155041E+02  0.00000000000E+00 0. -1.
        6    1    1    2  501    0  0.83022617793E+02 -0.30861195998E+02  0.16459767030E+04  0.16574116795E+04  0.17300000000E+03 0. -1.
       -6    1    1    2    0  503 -0.83022617793E+02  0.30861195998E+02  0.70036614390E+03  0.72683347749E+03  0.17300000000E+03 0. -1.
</event>
<event>
 6   2  0.6181100E+00  0.8335230E+02  0.7957747E-01  0.1318795E+00
       21   -1    0    0  501  502  0.00000000000E+00  0.00000000000E+00  0.33495046541E+02  0.33495046541E+02  0.00000000000E+00 0. -1.
       -2   -1    0    0    0  501  0.00000000000E+00  0.00000000000E+00 -0.95792982133E+02  0.95792982133E+02  0.00000000000E+00 0.  1.
      -24    2    1    2    0    0 -0.11017224668E+02  0.20806091837E+02 -0.64848251213E+02  0.10560730219E+03  0.79958325983E+02 0.  0.
       11    1    3    3    0    0 -0.14602365075E+02 -0.23037154462E+02 -0.34497461760E-01  0.27275277112E+02  0.00000000000E+00 0. -1.
      -12    1    3    3    0    0  0.35851404065E+01  0.43843246299E+02 -0.64813753751E+02  0.78332025080E+02  0.00000000000E+00 0.  1.
       -1    1    1    2    0  502  0.11017224668E+02 -0.20806091837E+02  0.25503156209E+01  0.23680726482E+02  0.00000000000E+00 0.  1.
</event>
<event>
 5   1  0.6181100E+00  0.8131058E+02  0.7957747E-01  0.1324080E+00
        1   -1    0    0  501    0  0.00000000000E+00  0.00000000000E+00  0.95579755274E+01  0.95579755274E+01  0.00000000000E+00 0. -1.
       -2   -1    0    0    0  501  0.00000000000E+00  0.00000000000E+00 -0.17292917179E+03  0.17292917179E+03  0.00000000000E+00 0.  1.
      -24    2    1    2    0    0  0.00000000000E+00  0.00000000000E+00 -0.16337119626E+03  0.18248714731E+03  0.81310584598E+02 0.  0.
       11    1    3    3    0    0  0.31627582715E+02 -0.30016324520E+01 -0.24751474974E+02  0.40273431678E+02  0.00000000000E+00 0. -1.
      -12    1    3    3    0    0 -0.31627582715E+02  0.30016324520E+01 -0.13861972129E+03  0.14221371564E+03  0.00000000000E+00 0.  1.
</event>
<event>
 5   1  0.6181100E+00  0.8855973E+02  0.7957747E-01  0.1306059E+00
        1   -1    0    0  501    0  0.00000000000E+00  0.00000000000E+00  0.76609055704E+02  0.76609055704E+02  0.00000000000E+00 0. -1.
       -2   -1    0    0    0  501  0.00000000000E+00  0.00000000000E+00 -0.25593661899E+02  0.25593661899E+02  0.00000000000E+00 0.  1.
      -24    2    1    2    0    0  0.00000000000E+00  0.00000000000E+00  0.51015393805E+02  0.10220271760E+03  0.88559726063E+02 0.  0.
       11    1    3    3    0    0  0.43680385521E+01  0.36294657114E+02  0.54343451760E+02  0.65494981830E+02  0.00000000000E+00 0. -1.
      -12    1    3    3    0    0 -0.43680385521E+01 -0.36294657114E+02 -0.33280579547E+01  0.36707735772E+02  0.00000000000E+00 0.  1.
</event>
<event>
 5   1  0.6181100E+00  0.8331922E+02  0.7957747E-01  0.1318880E+00
       -2   -1    0    0    0  501  0.00000000000E+00  0.00000000000E+00  0.21315762256E+03  0.21315762256E+03  0.00000000000E+00 0.  1.
        1   -1    0    0  501    0  0.00000000000E+00  0.00000000000E+00 -0.81419701400E+01  0.81419701400E+01  0.00000000000E+00 0. -1.
      -24    2    1    2    0    0  0.00000000000E+00  0.00000000000E+00  0.20501565242E+03  0.22129959270E+03  0.83319217423E+02 0.  0.
       11    1    3    3    0    0 -0.17670989762E+02  0.37698048731E+02  0.98643996622E+02  0.10707027985E+03  0.00000000000E+00 0. -1.
      -12    1    3    3    0    0  0.17670989762E+02 -0.37698048731E+02  0.10637165580E+03  0.11422931285E+03  0.00000000000E+00 0.  1.
</event>
<event>
 5   1  0.6181100E+00  0.8085471E+02  0.7957747E-01  0.1325283E+00
       -2   -1    0    0    0  501  0.00000000000E+00  0.00000000000E+00  0.10326556013E+03  0.10326556013E+03  0.00000000000E+00 0.  1.
        1   -1    0    0  501    0  0.00000000000E+00  0.00000000000E+00 -0.15826873362E+02  0.15826873362E+02  0.00000000000E+00 0. -1.
      -24    2    1    2    0    0  0.00000000000E+00  0.00000000000E+00  0.87438686772E+02  0.11909243350E+03  0.80854707789E+02 0.  0.
       11    1    3    3    0    0 -0.98485586671E+01  0.33816314361E+02  0.14488906568E+02  0.38084979169E+02  0.00000000000E+00 0. -1.
      -12    1    3    3    0    0  0.98485586671E+01 -0.33816314361E+02  0.72949780204E+02  0.81007454327E+02  0.00000000000E+00 0.  1.
</event>
<event>
 5   1  0.6181100E+00  0.8073964E+02  0.7957747E-01  0.1325589E+00
       -2   -1    0    0    0  501  0.00000000000E+00  0.00000000000E+00  0.75002667301E+01  0.75002667301E+01  0.00000000000E+00 0.  1.
        1   -1    0    0  501    0  0.00000000000E+00  0.00000000000E+00 -0.21728856983E+03  0.21728856983E+03  0.00000000000E+00 0. -1.
      -24    2    1    2    0    0  0.00000000000E+00  0.00000000000E+00 -0.20978830310E+03  0.22478883656E+03  0.80739636639E+02 0.  0.
       11    1    3    3    0    0  0.20663483803E+02 -0.22138401424E+02 -0.17921679928E+03  0.18175739194E+03  0.00000000000E+00 0. -1.
      -12    1    3    3    0    0 -0.20663483803E+02  0.22138401424E+02 -0.30571503827E+02  0.43031444627E+02  0.00000000000E+00 0.  1.
</event>
<event>
 6   2  0.6181100E+00  0.8407473E+02  0.7957747E-01  0.1316967E+00
        1   -1    0    0  502    0  0.00000000000E+00  0.00000000000E+00  0.71466822863E+03  0.71466822863E+03  0.00000000000E+00 0. -1.
       21   -1    0    0  501  502  0.00000000000E+00  0.00000000000E+00 -0.43927070648E+01  0.43927070648E+01  0.00000000000E+00 0.  1.
      -24    2    1    2    0    0 -0.15561752759E+02  0.16012229027E+02  0.44683009953E+03  0.45467097746E+03  0.81055538155E+02 0.  0.
       11    1    3    3    0    0  0.13690909635E+02  0.41443410185E+02  0.19117045951E+03  0.19608962707E+03  0.00000000000E+00 0. -1.
      -12    1    3    3    0    0 -0.29252662394E+02 -0.25431181158E+02  0.25565964002E+03  0.25858135039E+03  0.00000000000E+00 0.  1.
        2    1    1    2  501    0  0.15561752759E+02 -0.16012229027E+02  0.26344542203E+03  0.26438995824E+03  0.00000000000E+00 0. -1.
</event>
<event>
 5   1  0.6181100E+00  0.9608956E+02  0.7957747E-01  0.1289292E+00
       -2   -1    0    0    0  501  0.00000000000E+00  0.00000000000E+00  0.51218245996E+01  0.51218245996E+01  0.00000000000E+00 0.  1.
        1   -1    0    0  501    0  0.00000000000E+00  0.00000000000E+00 -0.45067941638E+03  0.45067941638E+03  0.00000000000E+00 0. -1.
      -24    2    1    2    0    0  0.00000000000E+00  0.00000000000E+00 -0.44555759178E+03  0.45580124098E+03  0.96089560752E+02 0.  0.
       11    1    3    3    0    0  0.37211912157E+02 -0.30123302541E+02 -0.20370946095E+03  0.20925984861E+03  0.00000000000E+00 0. -1.
      -12    1    3    3    0    0 -0.37211912157E+02  0.30123302541E+02 -0.24184813084E+03  0.24654139237E+03  0.00000000000E+00 0.  1.
</event>
<event>
 5   1  0.6181100E+00  0.7817769E+02  0.7957747E-01  0.1332539E+00
       -4   -1    0    0    0  501  0.00000000000E+00  0.00000000000E+00  0.12709576324E+03  0.12709576324E+03  0.00000000000E+00 0.  1.
        3   -1    0    0  501    0  0.00000000000E+00  0.00000000000E+00 -0.12021940295E+02  0.12021940295E+02  0.00000000000E+00 0. -1.
      -24    2    1    2    0    0  0.00000000000E+00  0.00000000000E+00  0.11507382295E+03  0.13911770354E+03  0.78177686776E+02 0.  0.
       11    1    3    3    0    0  0.29955953336E+02  0.55237692837E+00  0.10221186190E+03  0.10651257660E+03  0.00000000000E+00 0. -1.
      -12    1    3    3    0    0 -0.29955953336E+02 -0.55237692837E+00  0.12861961044E+02  0.32605126935E+02  0.00000000000E+00 0.  1.
</event>
<event>
 5   1  0.6181100E+00  0.8012741E+02  0.7957747E-01  0.1327223E+00
       -2   -1    0    0    0  501  0.00000000000E+00  0.00000000000E+00  0.13796990544E+03  0.13796990544E+03  0.00000000000E+00 0.  1.
        1   -1    0    0  501    0  0.00000000000E+00  0.00000000000E+00 -0.11633698739E+02  0.11633698739E+02  0.00000000000E+00 0. -1.
      -24    2    1    2    0    0  0.00000000000E+00  0.00000000000E+00  0.12633620670E+03  0.14960360418E+03  0.80127406420E+02 0.  0.
       11    1    3    3    0    0  0.47931001570E+01 -0.39749260674E+02  0.60447823210E+02  0.72504598917E+02  0.00000000000E+00 0. -1.
      -12    1    3    3    0    0 -0.47931001570E+01  0.39749260674E+02  0.65888383495E+02  0.77099005265E+02  0.00000000000E+00 0.  1.
</event>
<event>
 6   2  0.6181100E+00  0.9150134E+02  0.7957747E-01  0.1299293E+00
        3   -1    0    0  502    0  0.00000000000E+00  0.00000000000E+00  0.57662036610E+02  0.57662036610E+02  0.00000000000E+00 0. -1.
       -4   -1    0    0    0  501  0.00000000000E+00  0.00000000000E+00 -0.95632435286E+02  0.95632435286E+02  0.00000000000E+00 0.  1.
      -24    2    1    2    0    0 -0.41676913831E+02  0.84269221066E+01  0.65445449913E+01  0.91735082910E+02  0.81021702060E+02 0.  0.
       11    1    3    3    0    0  0.69505428076E+01  0.17618773366E+02  0.31158407559E+02  0.36463373155E+02  0.00000000000E+00 0. -1.
      -12    1    3    3    0    0 -0.48627456639E+02 -0.91918512590E+01 -0.24613862568E+02  0.55271709755E+02  0.00000000000E+00 0.  1.
       21    1    1    2  502  501  0.41676913831E+02 -0.84269221066E+01 -0.44514943667E+02  0.61559388986E+02  0.00000000000E+00 0.  1.
</event>
<event>
 4   3  0.6181100E+00  0.1944493E+03  0.7957747E-01  0.1160592E+00
       21   -1    0    0  503  502  0.00000000000E+00  0.00000000000E+00  0.12552247555E+03  0.12552247555E+03  0.00000000000E+00 0. -1.
       21   -1    0    0  501  503  0.00000000000E+00  0.00000000000E+00 -0.30157591469E+03  0.30157591469E+03  0.00000000000E+00 0. -1.
        6    1    1    2  501    0 -0.11113189661E+02 -0.88079693748E+02 -0.95308936229E+02  0.21655098421E+03  0.17300000000E+03 0. -1.
       -6    1    1    2    0  502  0.11113189661E+02  0.88079693748E+02 -0.80744502910E+02  0.21054740603E+03  0.17300000000E+03 0. -1.
</event>
<event>
 5   1  0.6181100E+00  0.8064982E+02  0.7957747E-01  0.1325827E+00
        3   -1    0    0  501    0  0.00000000000E+00  0.00000000000E+00  0.15785688888E+03  0.15785688888E+03  0.00000000000E+00 0. -1.
       -4   -1    0    0    0  501  0.00000000000E+00  0.00000000000E+00 -0.10301092000E+02  0.10301092000E+02  0.00000000000E+00 0.  1.
      -24    2    1    2    0    0  0.00000000000E+00  0.00000000000E+00  0.14755579688E+03  0.16815798088E+03  0.80649819222E+02 0.  0.
       11    1    3    3    0    0 -0.25495097980E+01  0.38543340509E+02  0.97914796356E+02  0.10525871196E+03  0.00000000000E+00 0. -1.
      -12    1    3    3    0    0  0.25495097980E+01 -0.38543340509E+02  0.49641000526E+02  0.62899268922E+02  0.00000000000E+00 0.  1.
</event>
<event>
 6   2  0.6181100E+00  0.8258500E+02  0.7957747E-01  0.1320761E+00
       21   -1    0    0  501  502  0.00000000000E+00  0.00000000000E+00  0.15362290573E+03  0.15362290573E+03  0.00000000000E+00 0.  1.
        3   -1    0    0  502    0  0.00000000000E+00  0.00000000000E+00 -0.19404081602E+02  0.19404081602E+02  0.00000000000E+00 0. -1.
      -24    2    1    2    0    0  0.82037400057E+01 -0.23962322290E+02  0.11314338845E+03  0.14007750739E+03  0.78605263734E+02 0.  0.
       11    1    3    3    0    0  0.30261211845E+02 -0.28345999038E+02  0.23508072531E+02  0.47664096319E+02  0.00000000000E+00 0. -1.
      -12    1    3    3    0    0 -0.22057471839E+02  0.43836767476E+01  0.89635315915E+02  0.92413411067E+02  0.00000000000E+00 0.  1.
        4    1    1    2  501    0 -0.82037400057E+01  0.23962322290E+02  0.21075435684E+02  0.32949479949E+02  0.00000000000E+00 0. -1.
</event>
<event>
 5   1  0.6181100E+00  0.7873724E+02  0.7957747E-01  0.1330995E+00
       -2   -1    0    0    0  501  0.00000000000E+00  0.00000000000E+00  0.12783086861E+02  0.12783086861E+02  0.00000000000E+00 0.  1.
        1   -1    0    0  501    0  0.00000000000E+00  0.00000000000E+00 -0.12124522494E+03  0.12124522494E+03  0.00000000000E+00 0. -1.
      -24    2    1    2    0    0  0.00000000000E+00  0.00000000000E+00 -0.10846213808E+03  0.13402831180E+03  0.78737240032E+02 0.  0.
       11    1    3    3    0    0 -0.36975170258E+02  0.71903163868E+01 -0.73715710153E+02  0.82782061999E+02  0.00000000000E+00 0. -1.
      -12    1    3    3    0    0  0.36975170258E+02 -0.71903163868E+01 -0.34746427928E+02  0.51246249806E+02  0.00000000000E+00 0.  1.
</event>
<event>
 4   3  0.6181100E+00  0.2280425E+03  0.7957747E-01  0.1134978E+00
       21   -1    0    0  503  502  0.00000000000E+00  0.00000000000E+00  0.22718009871E+03  0.22718009871E+03  0.00000000000E+00 0.  1.
       21   -1    0    0  501  503  0.00000000000E+00  0.00000000000E+00 -0.22986682079E+03  0.22986682079E+03  0.00000000000E+00 0. -1.
        6    1    1    2  501    0  0.72858468017E+02  0.12948365499E+03 -0.16101453456E+02  0.22861021429E+03  0.17300000000E+03 0. -1.
       -6    1    1    2    0  502 -0.72858468017E+02 -0.12948365499E+03  0.13414731382E+02  0.22843670522E+03  0.17300000000E+03 0. -1.
</event>
<event>
 6   2  0.6181100E+00  0.1195722E+03  0.7957747E-01  0.1246420E+00
       -2   -1    0    0    0  501  0.00000000000E+00  0.00000000000E+00  0.16263372595E+03  0.16263372595E+03  0.00000000000E+00 0.  1.
       21   -1    0    0  501  502  0.00000000000E+00  0.00000000000E+00 -0.87236400646E+02  0.87236400646E+02  0.00000000000E+00 0.  1.
      -24    2    1    2    0    0 -0.34954484949E+02  0.73797953587E+02  0.10878269240E+03  0.16165143976E+03  0.87347351645E+02 0.  0.
       11    1    3    3    0    0 -0.24750273475E+02 -0.72547238962E+01  0.22876247725E+00  0.25792622747E+02  0.00000000000E+00 0. -1.
      -12    1    3    3    0    0 -0.10204211474E+02  0.81052677483E+02  0.10855392992E+03  0.13585881701E+03  0.00000000000E+00 0.  1.
       -1    1    1    2    0  502  0.34954484949E+02 -0.73797953587E+02 -0.33385367091E+02  0.88218686838E+02  0.00000000000E+00 0.  1.
</event>
<event>
 6   2  0.6181100E+00  0.1233253E+03  0.7957747E-01  0.1240589E+00
       21   -1    0    0  501  502  0.00000000000E+00  0.00000000000E+00  0.39974770392E+02  0.39974770392E+02  0.00000000000E+00 0. -1.
        1   -1    0    0  502    0  0.00000000000E+00  0.00000000000E+00 -0.58642560497E+03  0.58642560497E+03  0.00000000000E+00 0. -1.
      -24    2    1    2    0    0 -0.85012388125E+02 -0.36663656506E+02 -0.51354427643E+03  0.52814473220E+03  0.81472722177E+02 0.  0.
       11    1    3    3    0    0 -0.84573997887E+02 -0.57524516966E+02 -0.43666214515E+03  0.44848150484E+03  0.00000000000E+00 0. -1.
      -12    1    3    3    0    0 -0.43839023829E+00  0.20860860460E+02 -0.76882131276E+02  0.79663227367E+02  0.00000000000E+00 0.  1.
        2    1    1    2  501    0  0.85012388125E+02  0.36663656506E+02 -0.32906558150E+02  0.98255643158E+02  0.00000000000E+00 0. -1.
</event>
<event>
 6   2  0.6181100E+00  0.8073080E+02  0.7957747E-01  0.1325612E+00
       -2   -1    0    0    0  501  0.00000000000E+00  0.00000000000E+00  0.20769178984E+03  0.20769178984E+03  0.00000000000E+00 0.  1.
        1   -1    0    0  502    0  0.00000000000E+00  0.00000000000E+00 -0.15119881939E+02  0.15119881939E+02  0.00000000000E+00 0. -1.
      -24    2    1    2    0    0  0.19444223447E+02  0.51169194602E+01  0.10224849401E+03  0.13027746304E+03  0.78186969237E+02 0.  0.
       11    1    3    3    0    0  0.26464540254E+02 -0.30205867891E+02  0.32052430618E+02  0.51382143342E+02  0.00000000000E+00 0. -1.
      -12    1    3    3    0    0 -0.70203168068E+01  0.35322787352E+02  0.70196063393E+02  0.78895319698E+02  0.00000000000E+00 0.  1.
       21    1    1    2  502  501 -0.19444223447E+02 -0.51169194602E+01  0.90323413886E+02  0.92534208736E+02  0.00000000000E+00 0.  1.
</event>
<event>
 6   2  0.6181100E+00  0.9385639E+02  0.7957747E-01  0.1294079E+00
       21   -1    0    0  501  502  0.00000000000E+00  0.00000000000E+00  0.40412816284E+02  0.40412816284E+02  0.00000000000E+00 0. -1.
        1   -1    0    0  502    0  0.00000000000E+00  0.00000000000E+00 -0.13063902190E+03  0.13063902190E+03  0.00000000000E+00 0. -1.
      -24    2    1    2    0    0 -0.48831863406E+02  0.15819541812E+02 -0.61806480794E+02  0.11237910562E+03  0.78576163854E+02 0.  0.
       11    1    3    3    0    0 -0.30919954325E+02  0.46752721351E+02 -0.48871232076E+02  0.74365703478E+02  0.00000000000E+00 0. -1.
      -12    1    3    3    0    0 -0.17911909081E+02 -0.30933179539E+02 -0.12935248718E+02  0.38013402146E+02  0.00000000000E+00 0.  1.
        2    1    1    2  501    0  0.48831863406E+02 -0.15819541812E+02 -0.28419724819E+02  0.58672732556E+02  0.00000000000E+00 0. -1.
</event>
<event>
 6   2  0.6181100E+00  0.8383621E+02  0.7957747E-01  0.1317568E+00
       21   -1    0    0  501  502  0.00000000000E+00  0.00000000000E+00  0.15273861675E+02  0.15273861675E+02  0.00000000000E+00 0. -1.
        3   -1    0    0  502    0  0.00000000000E+00  0.00000000000E+00 -0.19808248368E+03  0.19808248368E+03  0.00000000000E+00 0. -1.
      -24    2    1    2    0    0 -0.15066593112E+02 -0.18917699259E+02 -0.15703649444E+03  0.17801396099E+03  0.80272212807E+02 0.  0.
       11    1    3    3    0    0 -0.35534247642E+02 -0.37612739467E+02 -0.72665737411E+02  0.89205999346E+02  0.00000000000E+00 0. -1.
      -12    1    3    3    0    0  0.20467654529E+02  0.18695040208E+02 -0.84370757024E+02  0.88807961643E+02  0.00000000000E+00 0.  1.
        4    1    1    2  501    0  0.15066593112E+02  0.18917699259E+02 -0.25772127572E+02  0.35342384369E+02  0.00000000000E+00 0. -1.
</event>
<event>
 6   2  0.6181100E+00  0.8647832E+02  0.7957747E-01  0.1311028E+00
        1   -1    0    0  502    0  0.00000000000E+00  0.00000000000E+00  0.23760695431E+02  0.23760695431E+02  0.00000000000E+00 0. -1.
       -2   -1    0    0    0  501  0.00000000000E+00  0.00000000000E+00 -0.16260572223E+03  0.16260572223E+03  0.00000000000E+00 0.  1.
      -24    2    1    2    0    0  0.35099046325E+01  0.29568137850E+02 -0.12841061758E+03  0.15481533048E+03  0.81190551411E+02 0.  0.
       11    1    3    3    0    0 -0.31179898110E+02 -0.71438977505E+01 -0.28408887257E+02  0.42781844238E+02  0.00000000000E+00 0. -1.
      -12    1    3    3    0    0  0.34689802743E+02  0.36712035601E+02 -0.10000173032E+03  0.11203348624E+03  0.00000000000E+00 0.  1.
       21    1    1    2  502  501 -0.35099046325E+01 -0.29568137850E+02 -0.10434409219E+02  0.31551087179E+02  0.00000000000E+00 0.  1.
</event>
<event>
 5   1  0.6181100E+00  0.6449277E+02  0.7957747E-01  0.1375578E+00
        1   -1    0    0  501    0  0.00000000000E+00  0.00000000000E+00  0.12170125803E+01  0.12170125803E+01  0.00000000000E+00 0. -1.
       -2   -1    0    0    0  501  0.00000000000E+00  0.00000000000E+00 -0.85441130308E+03  0.85441130308E+03  0.00000000000E+00 0.  1.
      -24    2    1    2    0    0  0.00000000000E+00  0.00000000000E+00 -0.85319429050E+03  0.85562831566E+03  0.64492768731E+02 0.  0.
       11    1    3    3    0    0 -0.34937837438E+00 -0.17513679638E+02 -0.67410918672E+02  0.69649716410E+02  0.00000000000E+00 0. -1.
      -12    1    3    3    0    0  0.34937837438E+00  0.17513679638E+02 -0.78578337183E+03  0.78597859925E+03  0.00000000000E+00 0.  1.
</event>
<event>
 5   1  0.6181100E+00  0.8148152E+02  0.7957747E-01  0.1323630E+00
        3   -1    0    0  501    0  0.00000000000E+00  0.00000000000E+00  0.27841222404E+02  0.27841222404E+02  0.00000000000E+00 0. -1.
       -4   -1    0    0    0  501  0.00000000000E+00  0.00000000000E+00 -0.59616972769E+02  0.59616972769E+02  0.00000000000E+00 0.  1.
      -24    2    1    2    0    0  0.00000000000E+00  0.00000000000E+00 -0.31775750365E+02  0.87458195173E+02  0.81481516871E+02 0.  0.
       11    1    3    3    0    0 -0.26738209557E+02  0.24158231241E+02  0.45130464716E+01  0.36316932352E+02  0.00000000000E+00 0. -1.
      -12    1    3    3    0    0  0.26738209557E+02 -0.24158231241E+02 -0.36288796837E+02  0.51141262820E+02  0.00000000000E+00 0.  1.
</event>
<event>
 5   1  0.6181100E+00  0.8047854E+02  0.7957747E-01  0.1326283E+00
        1   -1    0    0  501    0  0.00000000000E+00  0.00000000000E+00  0.40962066957E+03  0.40962066957E+03  0.00000000000E+00 0. -1.
       -2   -1    0    0    0  501  0.00000000000E+00  0.00000000000E+00 -0.39529224716E+01  0.39529224716E+01  0.00000000000E+00 0.  1.
      -24    2    1    2    0    0  0.00000000000E+00  0.00000000000E+00  0.40566774710E+03  0.41357359204E+03  0.80478537501E+02 0.  0.
       11    1    3    3    0    0 -0.36631783065E+02  0.15549487100E+02  0.23346322144E+03  0.23683063536E+03  0.00000000000E+00 0. -1.
      -12    1    3    3    0    0  0.36631783065E+02 -0.15549487100E+02  0.17220452566E+03  0.17674295668E+03  0.00000000000E+00 0.  1.
</event>
<event>
 5   1  0.6181100E+00  0.7829593E+02  0.7957747E-01  0.1332211E+00
        1   -1    0    0  501    0  0.00000000000E+00  0.00000000000E+00  0.54330769879E+01  0.54330769879E+01  0.00000000000E+00 0. -1.
       -2   -1    0    0    0  501  0.00000000000E+00  0.00000000000E+00 -0.28208013679E+03  0.28208013679E+03  0.00000000000E+00 0.  1.
      -24    2    1    2    0    0  0.00000000000E+00  0.00000000000E+00 -0.27664705980E+03  0.28751321378E+03  0.78295928372E+02 0.  0.
       11    1    3    3    0    0  0.28483883585E+02  0.18051183636E+02 -0.65305617942E+02  0.73498303311E+02  0.00000000000E+00 0. -1.
      -12    1    3    3    0    0 -0.28483883585E+02 -0.18051183636E+02 -0.21134144186E+03  0.21401491047E+03  0.00000000000E+00 0.  1.
</event>
<event>
 5   1  0.6181100E+00  0.8061204E+02  0.7957747E-01  0.1325928E+00
       -2   -1    0    0    0  501  0.00000000000E+00  0.00000000000E+00  0.14135248325E+03  0.14135248325E+03  0.00000000000E+00 0.  1.
        1   -1    0    0  501    0  0.00000000000E+00  0.00000000000E+00 -0.11493078284E+02  0.11493078284E+02  0.00000000000E+00 0. -1.
      -24    2    1    2    0    0  0.00000000000E+00  0.00000000000E+00  0.12985940496E+03  0.15284556153E+03  0.80612037701E+02 0.  0.
       11    1    3    3    0    0 -0.48627712381E+01  0.38676804585E+02  0.45497740971E+02  0.59913155404E+02  0.00000000000E+00 0. -1.
      -12    1    3    3    0    0  0.48627712381E+01 -0.38676804585E+02  0.84361663991E+02  0.92932406126E+02  0.00000000000E+00 0.  1.
</event>
<event>
 5   1  0.6181100E+00  0.8545748E+02  0.7957747E-01  0.1313523E+00
        1   -1    0    0  501    0  0.00000000000E+00  0.00000000000E+00  0.69736467265E+02  0.69736467265E+02  0.00000000000E+00 0. -1.
       -2   -1    0    0    0  501  0.00000000000E+00  0.00000000000E+00 -0.26180640176E+02  0.26180640176E+02  0.00000000000E+00 0.  1.
      -24    2    1    2    0    0  0.00000000000E+00  0.00000000000E+00  0.43555827089E+02  0.95917107440E+02  0.85457483150E+02 0.  0.
       11    1    3    3    0    0  0.37492080340E+02 -0.19128032975E+02  0.30041644263E+02  0.51711102519E+02  0.00000000000E+00 0. -1.
      -12    1    3    3    0    0 -0.37492080340E+02  0.19128032975E+02  0.13514182826E+02  0.44206004922E+02  0.00000000000E+00 0.  1.
</event>
<event>
 5   1  0.6181100E+00  0.7922534E+02  0.7957747E-01  0.1329661E+00
       -4   -1    0    0    0  501  0.00000000000E+00  0.00000000000E+00  0.10166553547E+04  0.10166553547E+04  0.00000000000E+00 0.  1.
        3   -1    0    0  501    0  0.00000000000E+00  0.00000000000E+00 -0.15434566889E+01  0.15434566889E+01  0.00000000000E+00 0. -1.
      -24    2    1    2    0    0  0.00000000000E+00  0.00000000000E+00  0.10151118980E+04  0.10181988114E+04  0.79225337047E+02 0.  0.
       11    1    3    3    0    0 -0.97873277470E+01  0.10673327340E+02  0.33695569033E+02  0.36675646870E+02  0.00000000000E+00 0. -1.
      -12    1    3    3    0    0  0.97873277470E+01 -0.10673327340E+02  0.98141632898E+03  0.98152316452E+03  0.00000000000E+00 0.  1.
</event>
<event>
 5   1  0.6181100E+00  0.8168037E+02  0.7957747E-01  0.1323110E+00
        3   -1    0    0  501    0  0.00000000000E+00  0.00000000000E+00  0.20692401517E+03  0.20692401517E+03  0.00000000000E+00 0. -1.
       -4   -1    0    0    0  501  0.00000000000E+00  0.00000000000E+00 -0.80605469634E+01  0.80605469634E+01  0.00000000000E+00 0.  1.
      -24    2    1    2    0    0  0.00000000000E+00  0.00000000000E+00  0.19886346821E+03  0.21498456213E+03  0.81680370766E+02 0.  0.
       11    1    3    3    0    0  0.10729525406E+02 -0.32053222759E+02  0.15976127721E+03  0.16329787966E+03  0.00000000000E+00 0. -1.
      -12    1    3    3    0    0 -0.10729525406E+02  0.32053222759E+02  0.39102190997E+02  0.51686682477E+02  0.00000000000E+00 0.  1.
</event>
<event>
 6   2  0.6181100E+00  0.8159090E+02  0.7957747E-01  0.1323344E+00
       -4   -1    0    0    0  501  0.00000000000E+00  0.00000000000E+00  0.17252176946E+04  0.17252176946E+04  0.00000000000E+00 0.  1.
        3   -1    0    0  502    0  0.00000000000E+00  0.00000000000E+00 -0.15696634395E+01  0.15696634395E+01  0.00000000000E+00 0. -1.
      -24    2    1    2    0    0 -0.18025862383E+02 -0.12081674279E+02  0.14406292894E+04  0.14429379142E+04  0.78652248871E+02 0.  0.
       11    1    3    3    0    0 -0.47489991143E+01 -0.15704432678E+02  0.58962954607E+02  0.61203040891E+02  0.00000000000E+00 0. -1.
      -12    1    3    3    0    0 -0.13276863269E+02  0.36227583992E+01  0.13816663348E+04  0.13817348734E+04  0.00000000000E+00 0.  1.
       21    1    1    2  502  501  0.18025862383E+02  0.12081674279E+02  0.28301874174E+03  0.28384944379E+03  0.00000000000E+00 0. -1.
</event>
<event>
 4   3  0.6181100E+00  0.1901605E+03  0.7957747E-01  0.1164269E+00
       21   -1    0    0  501  502  0.00000000000E+00  0.00000000000E+00  0.24181044455E+03  0.24181044455E+03  0.00000000000E+00 0. -1.
       21   -1    0    0  502  503  0.00000000000E+00  0.00000000000E+00 -0.26555160342E+03  0.26555160342E+03  0.00000000000E+00 0. -1.
        6    1    1    2  501    0  0.29263921977E+02 -0.73318715039E+02  0.15580082052E+03  0.24583512113E+03  0.17300000000E+03 0. -1.
       -6    1    1    2    0  503 -0.29263921977E+02  0.73318715039E+02 -0.17954197939E+03  0.26152692685E+03  0.17300000000E+03 0. -1.
</event>
<event>
 5   1  0.6181100E+00  0.7046325E+02  0.7957747E-01  0.1355435E+00
       -2   -1    0    0    0  501  0.00000000000E+00  0.00000000000E+00  0.13525469881E+03  0.13525469881E+03  0.00000000000E+00 0.  1.
        1   -1    0    0  501    0  0.00000000000E+00  0.00000000000E+00 -0.91772580167E+01  0.91772580167E+01  0.00000000000E+00 0. -1.
      -24    2    1    2    0    0  0.00000000000E+00  0.00000000000E+00  0.12607744079E+03  0.14443195682E+03  0.70463246276E+02 0.  0.
       11    1    3    3    0    0 -0.29811324803E+01 -0.20672927585E+02  0.48818088687E+01  0.21449688660E+02  0.00000000000E+00 0. -1.
      -12    1    3    3    0    0  0.29811324803E+01  0.20672927585E+02  0.12119563192E+03  0.12298226816E+03  0.00000000000E+00 0.  1.
</event>
<event>
 6   2  0.6181100E+00  0.8496946E+02  0.7957747E-01  0.1314730E+00
        3   -1    0    0  502    0  0.00000000000E+00  0.00000000000E+00  0.11355021300E+02  0.11355021300E+02  0.00000000000E+00 0. -1.
       21   -1    0    0  501  502  0.00000000000E+00  0.00000000000E+00 -0.29164153911E+03  0.29164153911E+03  0.00000000000E+00 0.  1.
      -24    2    1    2    0    0 -0.22963377919E+02  0.77289232763E+01 -0.25096918217E+03  0.26496290229E+03  0.81441735084E+02 0.  0.
       11    1    3    3    0    0  0.16070980981E+02 -0.22508446175E+02 -0.42355269296E+02  0.50585328071E+02  0.00000000000E+00 0. -1.
      -12    1    3    3    0    0 -0.39034358900E+02  0.30237369451E+02 -0.20861391287E+03  0.21437757422E+03  0.00000000000E+00 0.  1.
        4    1    1    2  501    0  0.22963377919E+02 -0.77289232763E+01 -0.29317335638E+02  0.38033658112E+02  0.00000000000E+00 0. -1.
</event>
<event>
 6   2  0.6181100E+00  0.8477333E+02  0.7957747E-01  0.1315218E+00
       -2   -1    0    0    0  501  0.00000000000E+00  0.00000000000E+00  0.16768704337E+03  0.16768704337E+03  0.00000000000E+00 0.  1.
        1   -1    0    0  502    0  0.00000000000E+00  0.00000000000E+00 -0.23622078311E+02  0.23622078311E+02  0.00000000000E+00 0. -1.
      -24    2    1    2    0    0  0.98940496973E+01  0.28421121546E+02  0.13582190867E+03  0.16010655210E+03  0.79251907129E+02 0.  0.
       11    1    3    3    0    0  0.75134923474E+00 -0.13880529325E+02 -0.34020061280E+01  0.14311088907E+02  0.00000000000E+00 0. -1.
      -12    1    3    3    0    0  0.91427004626E+01  0.42301650870E+02  0.13922391480E+03  0.14579546320E+03  0.00000000000E+00 0.  1.
       21    1    1    2  502  501 -0.98940496973E+01 -0.28421121546E+02  0.82430563887E+01  0.31202569573E+02  0.00000000000E+00 0. -1.
</event>
<event>
 5   1  0.6181100E+00  0.8045968E+02  0.7957747E-01  0.1326334E+00
       -2   -1    0    0    0  501  0.00000000000E+00  0.00000000000E+00  0.41043370143E+03  0.41043370143E+03  0.00000000000E+00 0.  1.
        1   -1    0    0  501    0  0.00000000000E+00  0.00000000000E+00 -0.39432434181E+01  0.39432434181E+01  0.00000000000E+00 0. -1.
      -24    2    1    2    0    0  0.00000000000E+00  0.00000000000E+00  0.40649045801E+03  0.41437694485E+03  0.80459679137E+02 0.  0.
       11    1    3    3    0    0 -0.26867663826E+02 -0.28880281756E+02  0.16253062628E+03  0.16724875639E+03  0.00000000000E+00 0. -1.
      -12    1    3    3    0    0  0.26867663826E+02  0.28880281756E+02  0.24395983173E+03  0.24712818846E+03  0.00000000000E+00 0.  1.
</event>
<event>
 5   1  0.6181100E+00  0.8450692E+02  0.7957747E-01  0.1315882E+00
       -2   -1    0    0    0  501  0.00000000000E+00  0.00000000000E+00  0.43419662095E+03  0.43419662095E+03  0.00000000000E+00 0.  1.
        1   -1    0    0  501    0  0.00000000000E+00  0.00000000000E+00 -0.41118580265E+01  0.41118580265E+01  0.00000000000E+00 0. -1.
      -24    2    1    2    0    0  0.00000000000E+00  0.00000000000E+00  0.43008476292E+03  0.43830847897E+03  0.84506919502E+02 0.  0.
       11    1    3    3    0    0  0.39121218446E+02  0.73035033503E+01  0.14140938020E+03  0.14690276955E+03  0.00000000000E+00 0. -1.
      -12    1    3    3    0    0 -0.39121218446E+02 -0.73035033503E+01  0.28867538272E+03  0.29140570942E+03  0.00000000000E+00 0.  1.
</event>
<event>
 5   1  0.6181100E+00  0.8031197E+02  0.7957747E-01  0.1326728E+00
        1   -1    0    0  501    0  0.00000000000E+00  0.00000000000E+00  0.61172656052E+03  0.61172656052E+03  0.00000000000E+00 0. -1.
       -2   -1    0    0    0  501  0.00000000000E+00  0.00000000000E+00 -0.26359867968E+01  0.26359867968E+01  0.00000000000E+00 0.  1.
      -24    2    1    2    0    0  0.00000000000E+00  0.00000000000E+00  0.60909057373E+03  0.61436254732E+03  0.80311970136E+02 0.  0.
       11    1    3    3    0    0  0.32085380852E+02  0.14410474691E+02  0.15633646519E+03  0.16024426291E+03  0.00000000000E+00 0. -1.
      -12    1    3    3    0    0 -0.32085380852E+02 -0.14410474691E+02  0.45275410853E+03  0.45411828441E+03  0.00000000000E+00 0.  1.
</event>
<event>
 5   1  0.6181100E+00  0.8131339E+02  0.7957747E-01  0.1324072E+00
        1   -1    0    0  501    0  0.00000000000E+00  0.00000000000E+00  0.22993128987E+03  0.22993128987E+03  0.00000000000E+00 0. -1.
       -2   -1    0    0    0  501  0.00000000000E+00  0.00000000000E+00 -0.71889595266E+01  0.71889595266E+01  0.00000000000E+00 0.  1.
      -24    2    1    2    0    0  0.00000000000E+00  0.00000000000E+00  0.22274233034E+03  0.23712024939E+03  0.81313387256E+02 0.  0.
       11    1    3    3    0    0 -0.18399678315E+02  0.33914019928E+02  0.14874516910E+03  0.15366793498E+03  0.00000000000E+00 0. -1.
      -12    1    3    3    0    0  0.18399678315E+02 -0.33914019928E+02  0.73997161244E+02  0.83452314419E+02  0.00000000000E+00 0.  1.
</event>
<event>
 5   1  0.6181100E+00  0.7981231E+02  0.7957747E-01  0.1328070E+00
        3   -1    0    0  501    0  0.00000000000E+00  0.00000000000E+00  0.10925967063E+02  0.10925967063E+02  0.00000000000E+00 0. -1.
       -4   -1    0    0    0  501  0.00000000000E+00  0.00000000000E+00 -0.14575380118E+03  0.14575380118E+03  0.00000000000E+00 0.  1.
      -24    2    1    2    0    0  0.00000000000E+00  0.00000000000E+00 -0.13482783411E+03  0.15667976824E+03  0.79812310603E+02 0.  0.
       11    1    3    3    0    0  0.20165097049E+02  0.30343314954E+02 -0.35447675350E+02  0.50831934737E+02  0.00000000000E+00 0. -1.
      -12    1    3    3    0    0 -0.20165097049E+02 -0.30343314954E+02 -0.99380158764E+02  0.10584783350E+03  0.00000000000E+00 0.  1.
</event>
<event>
 5   1  0.6181100E+00  0.8090191E+02  0.7957747E-01  0.1325158E+00
        3   -1    0    0  501    0  0.00000000000E+00  0.00000000000E+00  0.35143796243E+02  0.35143796243E+02  0.00000000000E+00 0. -1.
       -4   -1    0    0    0  501  0.00000000000E+00  0.00000000000E+00 -0.46559556255E+02  0.46559556255E+02  0.00000000000E+00 0.  1.
      -24    2    1    2    0    0  0.00000000000E+00  0.00000000000E+00 -0.11415760012E+02  0.81703352497E+02  0.80901905000E+02 0.  0.
       11    1    3    3    0    0  0.29856147106E+02 -0.21490788473E+02 -0.22698217494E+02  0.43225601056E+02  0.00000000000E+00 0. -1.
      -12    1    3    3    0    0 -0.29856147106E+02  0.21490788473E+02  0.11282457482E+02  0.38477751442E+02  0.00000000000E+00 0.  1.
</event>
<event>
 5   1  0.6181100E+00  0.7982479E+02  0.7957747E-01  0.1328036E+00
        1   -1    0    0  501    0  0.00000000000E+00  0.00000000000E+00  0.82215495180E+02  0.82215495180E+02  0.00000000000E+00 0. -1.
       -2   -1    0    0    0  501  0.00000000000E+00  0.00000000000E+00 -0.19375901489E+02  0.19375901489E+02  0.00000000000E+00 0.  1.
      -24    2    1    2    0    0  0.00000000000E+00  0.00000000000E+00  0.62839593692E+02  0.10159139667E+03  0.79824791524E+02 0.  0.
       11    1    3    3    0    0  0.17168999790E+02 -0.33889122303E+02  0.15845598478E+02  0.41162241865E+02  0.00000000000E+00 0. -1.
      -12    1    3    3    0    0 -0.17168999790E+02  0.33889122303E+02  0.46993995214E+02  0.60429154804E+02  0.00000000000E+00 0.  1.
</event>
<event>
 5   1  0.6181100E+00  0.8048067E+02  0.7957747E-01  0.1326278E+00
       -4   -1    0    0    0  501  0.00000000000E+00  0.00000000000E+00  0.22516923493E+02  0.22516923493E+02  0.00000000000E+00 0.  1.
        3   -1    0    0  501    0  0.00000000000E+00  0.00000000000E+00 -0.71914110857E+02  0.71914110857E+02  0.00000000000E+00 0. -1.
      -24    2    1    2    0    0  0.00000000000E+00  0.00000000000E+00 -0.49397187364E+02  0.94431034349E+02  0.80480669287E+02 0.  0.
       11    1    3    3    0    0  0.11974122580E+02 -0.81994445664E+01 -0.68736678275E+02  0.70251985331E+02  0.00000000000E+00 0. -1.
      -12    1    3    3    0    0 -0.11974122580E+02  0.81994445664E+01  0.19339490910E+02  0.24179049018E+02  0.00000000000E+00 0.  1.
</event>
<event>
 5   1  0.6181100E+00  0.7353515E+02  0.7957747E-01  0.1345936E+00
       -2   -1    0    0    0  501  0.00000000000E+00  0.00000000000E+00  0.14609832013E+03  0.14609832013E+03  0.00000000000E+00 0.  1.
        1   -1    0    0  501    0  0.00000000000E+00  0.00000000000E+00 -0.92530459638E+01  0.92530459638E+01  0.00000000000E+00 0. -1.
      -24    2    1    2    0    0  0.00000000000E+00  0.00000000000E+00  0.13684527417E+03  0.15535136610E+03  0.73535147281E+02 0.  0.
       11    1    3    3    0    0  0.19392088466E+02 -0.44877908287E+01  0.31137825711E+01  0.20146687159E+02  0.00000000000E+00 0. -1.
      -12    1    3    3    0    0 -0.19392088466E+02  0.44877908287E+01  0.13373149160E+03  0.13520467894E+03  0.00000000000E+00 0.  1.
</event>
<event>
 4   1  0.6181100E+00  0.1136285E+03  0.7957747E-01  0.1256161E+00
        1   -1    0    0  501    0  0.00000000000E+00  0.00000000000E+00  0.85207258182E+02  0.85207258182E+02  0.00000000000E+00 0. -1.
       -2   -1    0    0    0  501  0.00000000000E+00  0.00000000000E+00 -0.37882439964E+02  0.37882439964E+02  0.00000000000E+00 0.  1.
       11    1    1    2    0    0  0.29992481700E+02  0.15878354751E+02  0.73021568441E+02  0.80522174373E+02  0.00000000000E+00 0. -1.
      -12    1    1    2    0    0 -0.29992481700E+02 -0.15878354751E+02 -0.25696750223E+02  0.42567523773E+02  0.00000000000E+00 0.  1.
</event>
<event>
 5   1  0.6181100E+00  0.8044146E+02  0.7957747E-01  0.1326382E+00
        3   -1    0    0  501    0  0.00000000000E+00  0.00000000000E+00  0.37522904443E+01  0.37522904443E+01  0.00000000000E+00 0. -1.
       -4   -1    0    0    0  501  0.00000000000E+00  0.00000000000E+00 -0.43112525777E+03  0.43112525777E+03  0.00000000000E+00 0.  1.
      -24    2    1    2    0    0  0.00000000000E+00  0.00000000000E+00 -0.42737296733E+03  0.43487754822E+03  0.80441461574E+02 0.  0.
       11    1    3    3    0    0 -0.25263046359E+02 -0.18105519476E+02 -0.75678934543E+02  0.81812789223E+02  0.00000000000E+00 0. -1.
      -12    1    3    3    0    0  0.25263046359E+02  0.18105519476E+02 -0.35169403278E+03  0.35306475899E+03  0.00000000000E+00 0.  1.
</event>
<event>
 5   1  0.6181100E+00  0.7877677E+02  0.7957747E-01  0.1330887E+00
       -4   -1    0    0    0  501  0.00000000000E+00  0.00000000000E+00  0.32851917907E+02  0.32851917907E+02  0.00000000000E+00 0.  1.
        3   -1    0    0  501    0  0.00000000000E+00  0.00000000000E+00 -0.47225392534E+02  0.47225392534E+02  0.00000000000E+00 0. -1.
      -24    2    1    2    0    0  0.00000000000E+00  0.00000000000E+00 -0.14373474626E+02  0.80077310441E+02  0.78776766083E+02 0.  0.
       11    1    3    3    0    0 -0.23824969649E+02  0.11628123808E+02 -0.36798443119E+02  0.45353807536E+02  0.00000000000E+00 0. -1.
      -12    1    3    3    0    0  0.23824969649E+02 -0.11628123808E+02  0.22424968492E+02  0.34723502904E+02  0.00000000000E+00 0.  1.
</event>
<event>
 5   1  0.6181100E+00  0.8226820E+02  0.7957747E-01  0.1321580E+00
       -4   -1    0    0    0  501  0.00000000000E+00  0.00000000000E+00  0.17450382447E+02  0.17450382447E+02  0.00000000000E+00 0.  1.
        3   -1    0    0  501    0  0.00000000000E+00  0.00000000000E+00 -0.96961435040E+02  0.96961435040E+02  0.00000000000E+00 0. -1.
      -24    2    1    2    0    0  0.00000000000E+00  0.00000000000E+00 -0.79511052592E+02  0.11441181749E+03  0.82268198572E+02 0.  0.
       11    1    3    3    0    0  0.15797187363E+02  0.33434859745E+02 -0.64810571563E+02  0.74618035093E+02  0.00000000000E+00 0. -1.
      -12    1    3    3    0    0 -0.15797187363E+02 -0.33434859745E+02 -0.14700481029E+02  0.39793782394E+02  0.00000000000E+00 0.  1.
</event>
<event>
 5   1  0.6181100E+00  0.9638996E+02  0.7957747E-01  0.1288659E+00
       -2   -1    0    0    0  501  0.00000000000E+00  0.00000000000E+00  0.50186748390E+02  0.50186748390E+02  0.00000000000E+00 0.  1.
        1   -1    0    0  501    0  0.00000000000E+00  0.00000000000E+00 -0.46282257485E+02  0.46282257485E+02  0.00000000000E+00 0. -1.
      -24    2    1    2    0    0  0.00000000000E+00  0.00000000000E+00  0.39044909044E+01  0.96469005875E+02  0.96389958218E+02 0.  0.
       11    1    3    3    0    0 -0.33377984498E+02  0.25998349636E+02 -0.21148103834E+02  0.47299538356E+02  0.00000000000E+00 0. -1.
      -12    1    3    3    0    0  0.33377984498E+02 -0.25998349636E+02  0.25052594738E+02  0.49169467519E+02  0.00000000000E+00 0.  1.
</event>
<event>
 5   1  0.6181100E+00  0.8174766E+02  0.7957747E-01  0.1322934E+00
       -4   -1    0    0    0  501  0.00000000000E+00  0.00000000000E+00  0.21403006902E+03  0.21403006902E+03  0.00000000000E+00 0.  1.
        3   -1    0    0  501    0  0.00000000000E+00  0.00000000000E+00 -0.78057720459E+01  0.78057720459E+01  0.00000000000E+00 0. -1.
      -24    2    1    2    0    0  0.00000000000E+00  0.00000000000E+00  0.20622429697E+03  0.22183584107E+03  0.81747658798E+02 0.  0.
       11    1    3    3    0    0  0.80166937460E+01  0.96704492549E+01 -0.24381204138E+01  0.12795678902E+02  0.00000000000E+00 0. -1.
      -12    1    3    3    0    0 -0.80166937460E+01 -0.96704492549E+01  0.20866241739E+03  0.20904016216E+03  0.00000000000E+00 0.  1.
</event>
<event>
 6   2  0.6181100E+00  0.8855747E+02  0.7957747E-01  0.1306064E+00
       -2   -1    0    0    0  501  0.00000000000E+00  0.00000000000E+00  0.12252084143E+03  0.12252084143E+03  0.00000000000E+00 0.  1.
        1   -1    0    0  502    0  0.00000000000E+00  0.00000000000E+00 -0.30778180570E+02  0.30778180570E+02  0.00000000000E+00 0. -1.
      -24    2    1    2    0    0 -0.33321698767E+02  0.63714016371E+01  0.71276990385E+02  0.11367864800E+03  0.81801560414E+02 0.  0.
       11    1    3    3    0    0 -0.19085635896E+01  0.32571413903E+02  0.13365665191E+01  0.32654647888E+02  0.00000000000E+00 0. -1.
      -12    1    3    3    0    0 -0.31413135177E+02 -0.26200012266E+02  0.69940423865E+02  0.81024000116E+02  0.00000000000E+00 0.  1.
       21    1    1    2  502  501  0.33321698767E+02 -0.63714016371E+01  0.20465670473E+02  0.39620373994E+02  0.00000000000E+00 0. -1.
</event>
<event>
 5   1  0.6181100E+00  0.8069801E+02  0.7957747E-01  0.1325699E+00
        3   -1    0    0  501    0  0.00000000000E+00  0.00000000000E+00  0.57121016994E+02  0.57121016994E+02  0.00000000000E+00 0. -1.
       -4   -1    0    0    0  501  0.00000000000E+00  0.00000000000E+00 -0.28501628804E+02  0.28501628804E+02  0.00000000000E+00 0.  1.
      -24    2    1    2    0    0  0.00000000000E+00  0.00000000000E+00  0.28619388190E+02  0.85622645798E+02  0.80698005508E+02 0.  0.
       11    1    3    3    0    0 -0.29354693820E+02 -0.18464656026E+02 -0.75742106660E+01  0.35496622919E+02  0.00000000000E+00 0. -1.
      -12    1    3    3    0    0  0.29354693820E+02  0.18464656026E+02  0.36193598857E+02  0.50126022879E+02  0.00000000000E+00 0.  1.
</event>
<event>
 5   1  0.6181100E+00  0.7982080E+02  0.7957747E-01  0.1328047E+00
        3   -1    0    0  501    0  0.00000000000E+00  0.00000000000E+00  0.19582770291E+02  0.19582770291E+02  0.00000000000E+00 0. -1.
       -4   -1    0    0    0  501  0.00000000000E+00  0.00000000000E+00 -0.81338841280E+02  0.81338841280E+02  0.00000000000E+00 0.  1.
      -24    2    1    2    0    0  0.00000000000E+00  0.00000000000E+00 -0.61756070989E+02  0.10092161157E+03  0.79820795400E+02 0.  0.
       11    1    3    3    0    0  0.18495970861E+02  0.10504133768E+02  0.11818941381E+02  0.24333621589E+02  0.00000000000E+00 0. -1.
      -12    1    3    3    0    0 -0.18495970861E+02 -0.10504133768E+02 -0.73575012370E+02  0.76587989982E+02  0.00000000000E+00 0.  1.
</event>
<event>
 6   2  0.6181100E+00  0.8470445E+02  0.7957747E-01  0.1315389E+00
       21   -1    0    0  501  502  0.00000000000E+00  0.00000000000E+00  0.23514471153E+03  0.23514471153E+03  0.00000000000E+00 0.  1.
        1   -1    0    0  502    0  0.00000000000E+00  0.00000000000E+00 -0.12739499357E+02  0.12739499357E+02  0.00000000000E+00 0. -1.
      -24    2    1    2    0    0  0.23370188315E+02  0.64269145190E+01  0.16225477128E+03  0.18303402606E+03  0.81162632789E+02 0.  0.
       11    1    3    3    0    0 -0.30285092262E+01 -0.20455952927E+02  0.49272236271E+01  0.21257831755E+02  0.00000000000E+00 0. -1.
      -12    1    3    3    0    0  0.26398697541E+02  0.26882867446E+02  0.15732754765E+03  0.16177619430E+03  0.00000000000E+00 0.  1.
        2    1    1    2  501    0 -0.23370188315E+02 -0.64269145190E+01  0.60150440892E+02  0.64850184823E+02  0.00000000000E+00 0. -1.
</event>
<event>
 5   1  0.6181100E+00  0.8375365E+02  0.7957747E-01  0.1317777E+00
       -4   -1    0    0    0  501  0.00000000000E+00  0.00000000000E+00  0.12548356779E+04  0.12548356779E+04  0.00000000000E+00 0.  1.
        3   -1    0    0  501    0  0.00000000000E+00  0.00000000000E+00 -0.13975282177E+01  0.13975282177E+01  0.00000000000E+00 0. -1.
      -24    2    1    2    0    0  0.00000000000E+00  0.00000000000E+00  0.12534381497E+04  0.12562332061E+04  0.83753645136E+02 0.  0.
       11    1    3    3    0    0  0.24385821781E+02  0.51444235038E+01  0.12195046102E+03  0.12447107431E+03  0.00000000000E+00 0. -1.
      -12    1    3    3    0    0 -0.24385821781E+02 -0.51444235038E+01  0.11314876887E+04  0.11317621318E+04  0.00000000000E+00 0.  1.
</event>
<event>
 6   2  0.6181100E+00  0.1079650E+03  0.7957747E-01  0.1266083E+00
       21   -1    0    0  501  502  0.00000000000E+00  0.00000000000E+00  0.29351655646E+02  0.29351655646E+02  0.00000000000E+00 0. -1.
        1   -1    0    0  502    0  0.00000000000E+00  0.00000000000E+00 -0.27573995198E+03  0.27573995198E+03  0.00000000000E+00 0. -1.
      -24    2    1    2    0    0  0.48681076782E+02 -0.52544477627E+02 -0.13894723524E+03  0.17596240499E+03  0.80781584669E+02 0.  0.
       11    1    3    3    0    0  0.58969146001E+02 -0.60676380073E+02 -0.13914098278E+03  0.16284715646E+03  0.00000000000E+00 0. -1.
      -12    1    3    3    0    0 -0.10288069219E+02  0.81319024461E+01  0.19374754208E+00  0.13115248521E+02  0.00000000000E+00 0.  1.
        2    1    1    2  501    0 -0.48681076782E+02  0.52544477627E+02 -0.10744106109E+03  0.12912920264E+03  0.00000000000E+00 0. -1.
</event>
<event>
 6   2  0.6181100E+00  0.1054710E+03  0.7957747E-01  0.1270671E+00
        3   -1    0    0  502    0  0.00000000000E+00  0.00000000000E+00  0.62455442006E+03  0.62455442006E+03  0.00000000000E+00 0. -1.
       21   -1    0    0  501  502  0.00000000000E+00  0.00000000000E+00 -0.11879834146E+02  0.11879834146E+02  0.00000000000E+00 0.  1.
      -24    2    1    2    0    0 -0.45331937727E+02 -0.49023584922E+02  0.36909225787E+03  0.38386615053E+03  0.81644535949E+02 0.  0.
       11    1    3    3    0    0  0.38493301507E+01 -0.13065173294E+02  0.46889305321E+01  0.14404935451E+02  0.00000000000E+00 0. -1.
      -12    1    3    3    0    0 -0.49181267878E+02 -0.35958411628E+02  0.36440332733E+03  0.36946121508E+03  0.00000000000E+00 0.  1.
        4    1    1    2  501    0  0.45331937727E+02  0.49023584922E+02  0.24358232805E+03  0.25256810368E+03  0.00000000000E+00 0. -1.
</event>
<event>
 5   1  0.6181100E+00  0.8071816E+02  0.7957747E-01  0.1325646E+00
        1   -1    0    0  501    0  0.00000000000E+00  0.00000000000E+00  0.66252076182E+02  0.66252076182E+02  0.00000000000E+00 0. -1.
       -2   -1    0    0    0  501  0.00000000000E+00  0.00000000000E+00 -0.24585722966E+02  0.24585722966E+02  0.00000000000E+00 0.  1.
      -24    2    1    2    0    0  0.00000000000E+00  0.00000000000E+00  0.41666353216E+02  0.90837799147E+02  0.80718156344E+02 0.  0.
       11    1    3    3    0    0  0.11418486165E+02  0.23401415772E+02  0.55534873641E+02  0.61336206899E+02  0.00000000000E+00 0. -1.
      -12    1    3    3    0    0 -0.11418486165E+02 -0.23401415772E+02 -0.13868520425E+02  0.29501592248E+02  0.00000000000E+00 0.  1.
</event>
<event>
 5   1  0.6181100E+00  0.8145660E+02  0.7957747E-01  0.1323696E+00
        1   -1    0    0  501    0  0.00000000000E+00  0.00000000000E+00  0.21582036118E+03  0.21582036118E+03  0.00000000000E+00 0. -1.
       -2   -1    0    0    0  501  0.00000000000E+00  0.00000000000E+00 -0.76859968571E+01  0.76859968571E+01  0.00000000000E+00 0.  1.
      -24    2    1    2    0    0  0.00000000000E+00  0.00000000000E+00  0.20813436432E+03  0.22350635804E+03  0.81456604833E+02 0.  0.
       11    1    3    3    0    0  0.38936265461E+02  0.94458562626E+00  0.71385209573E+02  0.81318959387E+02  0.00000000000E+00 0. -1.
      -12    1    3    3    0    0 -0.38936265461E+02 -0.94458562626E+00  0.13674915475E+03  0.14218739865E+03  0.00000000000E+00 0.  1.
</event>
<event>
 6   2  0.6181100E+00  0.1033250E+03  0.7957747E-01  0.1274733E+00
       21   -1    0    0  501  502  0.00000000000E+00  0.00000000000E+00  0.13534675303E+03  0.13534675303E+03  0.00000000000E+00 0.  1.
       -2   -1    0    0    0  501  0.00000000000E+00  0.00000000000E+00 -0.15229167913E+03  0.15229167913E+03  0.00000000000E+00 0.  1.
      -24    2    1    2    0    0 -0.62184484072E+02 -0.18907122626E+02 -0.12461032573E+03  0.16187584781E+03  0.80322272633E+02 0.  0.
       11    1    3    3    0    0 -0.21361339533E+02 -0.84567127636E+01  0.67309468905E+01  0.23940101576E+02  0.00000000000E+00 0. -1.
      -12    1    3    3    0    0 -0.40823144540E+02 -0.10450409862E+02 -0.13134127262E+03  0.13793574623E+03  0.00000000000E+00 0.  1.
       -1    1    1    2    0  502  0.62184484072E+02  0.18907122626E+02  0.10766539963E+03  0.12576258435E+03  0.00000000000E+00 0.  1.
</event>
<event>
 5   1  0.6181100E+00  0.8255898E+02  0.7957747E-01  0.1320828E+00
        3   -1    0    0  501    0  0.00000000000E+00  0.00000000000E+00  0.91987426852E+02  0.91987426852E+02  0.00000000000E+00 0. -1.
       -4   -1    0    0    0  501  0.00000000000E+00  0.00000000000E+00 -0.18524231840E+02  0.18524231840E+02  0.00000000000E+00 0.  1.
      -24    2    1    2    0    0  0.00000000000E+00  0.00000000000E+00  0.73463195012E+02  0.11051165869E+03  0.82558983070E+02 0.  0.
       11    1    3    3    0    0  0.19582278287E+02 -0.14716557610E+02  0.81206929460E+02  0.84821035617E+02  0.00000000000E+00 0. -1.
      -12    1    3    3    0    0 -0.19582278287E+02  0.14716557610E+02 -0.77437344479E+01  0.25690623076E+02  0.00000000000E+00 0.  1.
</event>
<event>
 5   1  0.6181100E+00  0.7999206E+02  0.7957747E-01  0.1327586E+00
        3   -1    0    0  501    0  0.00000000000E+00  0.00000000000E+00  0.39232454554E+02  0.39232454554E+02  0.00000000000E+00 0. -1.
       -4   -1    0    0    0  501  0.00000000000E+00  0.00000000000E+00 -0.40774466106E+02  0.40774466106E+02  0.00000000000E+00 0.  1.
      -24    2    1    2    0    0  0.00000000000E+00  0.00000000000E+00 -0.15420115524E+01  0.80006920660E+02  0.79992059318E+02 0.  0.
       11    1    3    3    0    0  0.26167468095E+02 -0.24332152012E+02  0.17201539087E+02  0.39657066898E+02  0.00000000000E+00 0. -1.
      -12    1    3    3    0    0 -0.26167468095E+02  0.24332152012E+02 -0.18743550640E+02  0.40349853762E+02  0.00000000000E+00 0.  1.
</event>
<event>
 5   1  0.6181100E+00  0.8692884E+02  0.7957747E-01  0.1309939E+00
       -2   -1    0    0    0  501  0.00000000000E+00  0.00000000000E+00  0.14898699747E+02  0.14898699747E+02  0.00000000000E+00 0.  1.
        1   -1    0    0  501    0  0.00000000000E+00  0.00000000000E+00 -0.12680004648E+03  0.12680004648E+03  0.00000000000E+00 0. -1.
      -24    2    1    2    0    0  0.00000000000E+00  0.00000000000E+00 -0.11190134673E+03  0.14169874623E+03  0.86928840332E+02 0.  0.
       11    1    3    3    0    0 -0.10067555952E+02  0.38459203329E+02 -0.84590031023E+02  0.93466247127E+02  0.00000000000E+00 0. -1.
      -12    1    3    3    0    0  0.10067555952E+02 -0.38459203329E+02 -0.27311315711E+02  0.48232499100E+02  0.00000000000E+00 0.  1.
</event>
<event>
 4   3  0.6181100E+00  0.1894257E+03  0.7957747E-01  0.1164910E+00
       21   -1    0    0  501  502  0.00000000000E+00  0.00000000000E+00  0.10115721050E+04  0.10115721050E+04  0.00000000000E+00 0.  1.
       21   -1    0    0  502  503  0.00000000000E+00  0.00000000000E+00 -0.29247901393E+03  0.29247901393E+03  0.00000000000E+00 0.  1.
        6    1    1    2  501    0 -0.73151995440E+02 -0.24533492860E+02  0.97075600911E+03  0.98906487953E+03  0.17300000000E+03 0.  1.
       -6    1    1    2    0  503  0.73151995440E+02  0.24533492860E+02 -0.25166291802E+03  0.31498623941E+03  0.17300000000E+03 0.  1.
</event>
<event>
 5   1  0.6181100E+00  0.8097817E+02  0.7957747E-01  0.1324956E+00
        1   -1    0    0  501    0  0.00000000000E+00  0.00000000000E+00  0.15678690421E+02  0.15678690421E+02  0.00000000000E+00 0. -1.
       -2   -1    0    0    0  501  0.00000000000E+00  0.00000000000E+00 -0.10456013348E+03  0.10456013348E+03  0.00000000000E+00 0.  1.
      -24    2    1    2    0    0  0.00000000000E+00  0.00000000000E+00 -0.88881443054E+02  0.12023882390E+03  0.80978168988E+02 0.  0.
       11    1    3    3    0    0 -0.10798819467E+01  0.36427975847E+02 -0.18246938157E+02  0.40756770252E+02  0.00000000000E+00 0. -1.
      -12    1    3    3    0    0  0.10798819467E+01 -0.36427975847E+02 -0.70634504898E+02  0.79482053644E+02  0.00000000000E+00 0.  1.
</event>
<event>
 6   2  0.6181100E+00  0.8365768E+02  0.7957747E-01  0.1318020E+00
       21   -1    0    0  501  502  0.00000000000E+00  0.00000000000E+00  0.62110366742E+01  0.62110366742E+01  0.00000000000E+00 0.  1.
        1   -1    0    0  502    0  0.00000000000E+00  0.00000000000E+00 -0.47627546177E+03  0.47627546177E+03  0.00000000000E+00 0. -1.
      -24    2    1    2    0    0 -0.24395841070E+02 -0.58135684645E+01 -0.36715816733E+03  0.37656835776E+03  0.79810109542E+02 0.  0.
       11    1    3    3    0    0 -0.36127354740E+02 -0.31066525622E+02 -0.14396799128E+03  0.15164793862E+03  0.00000000000E+00 0. -1.
      -12    1    3    3    0    0  0.11731513670E+02  0.25252957157E+02 -0.22319017605E+03  0.22492041914E+03  0.00000000000E+00 0.  1.
        2    1    1    2  501    0  0.24395841070E+02  0.58135684645E+01 -0.10290625777E+03  0.10591814069E+03  0.00000000000E+00 0. -1.
</event>
<event>
 4   3  0.6181100E+00  0.2252577E+03  0.7957747E-01  0.1136913E+00
       21   -1    0    0  503  502  0.00000000000E+00  0.00000000000E+00  0.33433018517E+02  0.33433018517E+02  0.00000000000E+00 0.  1.
       21   -1    0    0  501  503  0.00000000000E+00  0.00000000000E+00 -0.15335963091E+04  0.15335963091E+04  0.00000000000E+00 0.  1.
        6    1    1    2  501    0  0.91899078422E+02  0.11120516046E+03 -0.67029181525E+03  0.70712951142E+03  0.17300000000E+03 0.  1.
       -6    1    1    2    0  502 -0.91899078422E+02 -0.11120516046E+03 -0.82987147535E+03  0.85989981622E+03  0.17300000000E+03 0.  1.
</event>
<event>
 5   1  0.6181100E+00  0.8227998E+02  0.7957747E-01  0.1321549E+00
        1   -1    0    0  501    0  0.00000000000E+00  0.00000000000E+00  0.74593810268E+01  0.74593810268E+01  0.00000000000E+00 0. -1.
       -2   -1    0    0    0  501  0.00000000000E+00  0.00000000000E+00 -0.22689534875E+03  0.22689534875E+03  0.00000000000E+00 0.  1.
      -24    2    1    2    0    0  0.00000000000E+00  0.00000000000E+00 -0.21943596773E+03  0.23435472978E+03  0.82279982002E+02 0.  0.
       11    1    3    3    0    0  0.31613948758E+02 -0.26160997765E+02 -0.11809946773E+03  0.12502529279E+03  0.00000000000E+00 0. -1.
      -12    1    3    3    0    0 -0.31613948758E+02  0.26160997765E+02 -0.10133650000E+03  0.10932943699E+03  0.00000000000E+00 0.  1.
</event>
<event>
 5   1  0.6181100E+00  0.8013401E+02  0.7957747E-01  0.1327205E+00
        1   -1    0    0  501    0  0.00000000000E+00  0.00000000000E+00  0.36654716600E+02  0.36654716600E+02  0.00000000000E+00 0. -1.
       -2   -1    0    0    0  501  0.00000000000E+00  0.00000000000E+00 -0.43796957148E+02  0.43796957148E+02  0.00000000000E+00 0.  1.
      -24    2    1    2    0    0  0.00000000000E+00  0.00000000000E+00 -0.71422405490E+01  0.80451673748E+02  0.80134014056E+02 0.  0.
       11    1    3    3    0    0 -0.33985948686E+02  0.21172928139E+02 -0.21415874413E+01  0.40098927552E+02  0.00000000000E+00 0. -1.
      -12    1    3    3    0    0  0.33985948686E+02 -0.21172928139E+02 -0.50006531077E+01  0.40352746196E+02  0.00000000000E+00 0.  1.
</event>
<event>
 5   1  0.6181100E+00  0.8035015E+02  0.7957747E-01  0.1326626E+00
       -4   -1    0    0    0  501  0.00000000000E+00  0.00000000000E+00  0.18279525999E+02  0.18279525999E+02  0.00000000000E+00 0.  1.
        3   -1    0    0  501    0  0.00000000000E+00  0.00000000000E+00 -0.88297512364E+02  0.88297512364E+02  0.00000000000E+00 0. -1.
      -24    2    1    2    0    0  0.00000000000E+00  0.00000000000E+00 -0.70017986365E+02  0.10657703836E+03  0.80350150540E+02 0.  0.
       11    1    3    3    0    0 -0.21517489936E+02  0.33926712466E+02 -0.35157177409E+02  0.53385871870E+02  0.00000000000E+00 0. -1.
      -12    1    3    3    0    0  0.21517489936E+02 -0.33926712466E+02 -0.34860808955E+02  0.53191166493E+02  0.00000000000E+00 0.  1.
</event>
<event>
 5   1  0.6181100E+00  0.8060706E+02  0.7957747E-01  0.1325941E+00
       -2   -1    0    0    0  501  0.00000000000E+00  0.00000000000E+00  0.14724845447E+02  0.14724845447E+02  0.00000000000E+00 0.  1.
        1   -1    0    0  501    0  0.00000000000E+00  0.00000000000E+00 -0.11031521720E+03  0.11031521720E+03  0.00000000000E+00 0. -1.
      -24    2    1    2    0    0  0.00000000000E+00  0.00000000000E+00 -0.95590371755E+02  0.12504006265E+03  0.80607059832E+02 0.  0.
       11    1    3    3    0    0  0.20451760584E+01  0.37163014957E+02 -0.23808635443E+02  0.44182842230E+02  0.00000000000E+00 0. -1.
      -12    1    3    3    0    0 -0.20451760584E+01 -0.37163014957E+02 -0.71781736312E+02  0.80857220418E+02  0.00000000000E+00 0.  1.
</event>
<event>
 5   1  0.6181100E+00  0.8310038E+02  0.7957747E-01  0.1319438E+00
       -4   -1    0    0    0  501  0.00000000000E+00  0.00000000000E+00  0.10648731791E+03  0.10648731791E+03  0.00000000000E+00 0.  1.
        3   -1    0    0  501    0  0.00000000000E+00  0.00000000000E+00 -0.16212432022E+02  0.16212432022E+02  0.00000000000E+00 0. -1.
      -24    2    1    2    0    0  0.00000000000E+00  0.00000000000E+00  0.90274885888E+02  0.12269974993E+03  0.83100382740E+02 0.  0.
       11    1    3    3    0    0  0.18579884564E+02  0.36941476699E+02  0.39133670012E+02  0.56932670232E+02  0.00000000000E+00 0. -1.
      -12    1    3    3    0    0 -0.18579884564E+02 -0.36941476699E+02  0.51141215876E+02  0.65767079701E+02  0.00000000000E+00 0.  1.
</event>
<event>
 5   1  0.6181100E+00  0.7282445E+02  0.7957747E-01  0.1348086E+00
       -2   -1    0    0    0  501  0.00000000000E+00  0.00000000000E+00  0.17166040254E+03  0.17166040254E+03  0.00000000000E+00 0.  1.
        1   -1    0    0  501    0  0.00000000000E+00  0.00000000000E+00 -0.77236812797E+01  0.77236812797E+01  0.00000000000E+00 0. -1.
      -24    2    1    2    0    0  0.00000000000E+00  0.00000000000E+00  0.16393672126E+03  0.17938408382E+03  0.72824452968E+02 0.  0.
       11    1    3    3    0    0  0.29353981022E+02 -0.19171701273E+02  0.57753335437E+02  0.67562253409E+02  0.00000000000E+00 0. -1.
      -12    1    3    3    0    0 -0.29353981022E+02  0.19171701273E+02  0.10618338582E+03  0.11182183041E+03  0.00000000000E+00 0.  1.
</event>
<event>
 6   2  0.6181100E+00  0.9586020E+02  0.7957747E-01  0.1289777E+00
        1   -1    0    0  502    0  0.00000000000E+00  0.00000000000E+00  0.36987460815E+02  0.36987460815E+02  0.00000000000E+00 0. -1.
       21   -1    0    0  501  502  0.00000000000E+00  0.00000000000E+00 -0.21340706098E+03  0.21340706098E+03  0.00000000000E+00 0. -1.
      -24    2    1    2    0    0 -0.49088717018E+02  0.92701533120E+01 -0.37792818241E+02  0.10304112839E+03  0.81814052269E+02 0.  0.
       11    1    3    3    0    0 -0.53588831462E+02 -0.12916168153E+02  0.42540901940E+01  0.55287318081E+02  0.00000000000E+00 0. -1.
      -12    1    3    3    0    0  0.45001144445E+01  0.22186321465E+02 -0.42046908435E+02  0.47753810310E+02  0.00000000000E+00 0.  1.
        2    1    1    2  501    0  0.49088717018E+02 -0.92701533120E+01 -0.13862678193E+03  0.14735339341E+03  0.00000000000E+00 0. -1.
</event>
<event>
 5   1  0.6181100E+00  0.8121538E+02  0.7957747E-01  0.1324330E+00
        1   -1    0    0  501    0  0.00000000000E+00  0.00000000000E+00  0.19904568571E+03  0.19904568571E+03  0.00000000000E+00 0. -1.
       -2   -1    0    0    0  501  0.00000000000E+00  0.00000000000E+00 -0.82844526594E+01  0.82844526594E+01  0.00000000000E+00 0.  1.
      -24    2    1    2    0    0  0.00000000000E+00  0.00000000000E+00  0.19076123305E+03  0.20733013837E+03  0.81215381803E+02 0.  0.
       11    1    3    3    0    0 -0.13525952322E+02 -0.32119447596E+02  0.14858607482E+03  0.15261858317E+03  0.00000000000E+00 0. -1.
      -12    1    3    3    0    0  0.13525952322E+02  0.32119447596E+02  0.42175158235E+02  0.54711555199E+02  0.00000000000E+00 0.  1.
</event>
<event>
 6   2  0.6181100E+00  0.8381541E+02  0.7957747E-01  0.1317621E+00
       21   -1    0    0  501  502  0.00000000000E+00  0.00000000000E+00  0.45648996772E+02  0.45648996772E+02  0.00000000000E+00 0.  1.
       -4   -1    0    0    0  501  0.00000000000E+00  0.00000000000E+00 -0.70872578420E+02  0.70872578420E+02  0.00000000000E+00 0.  1.
      -24    2    1    2    0    0  0.22086694432E+02  0.66997884895E+01 -0.35790480777E+02  0.91137158831E+02  0.80574896642E+02 0.  0.
       11    1    3    3    0    0  0.40317949325E+02  0.25879536305E+02 -0.16440096695E+01  0.47937357092E+02  0.00000000000E+00 0. -1.
      -12    1    3    3    0    0 -0.18231254893E+02 -0.19179747815E+02 -0.34146471107E+02  0.43199801739E+02  0.00000000000E+00 0.  1.
       -3    1    1    2    0  502 -0.22086694432E+02 -0.66997884895E+01  0.10566899129E+02  0.25384416360E+02  0.00000000000E+00 0.  1.
</event>
<event>
 4   3  0.6181100E+00  0.1823642E+03  0.7957747E-01  0.1171235E+00
       21   -1    0    0  501  502  0.00000000000E+00  0.00000000000E+00  0.34396833861E+03  0.34396833861E+03  0.00000000000E+00 0. -1.
       21   -1    0    0  502  503  0.00000000000E+00  0.00000000000E+00 -0.96688824221E+02  0.96688824221E+02  0.00000000000E+00 0. -1.
        6    1    1    2  501    0 -0.24798431819E+02 -0.52084124490E+02  0.12232959701E+03  0.21959337091E+03  0.17300000000E+03 0. -1.
       -6    1    1    2    0  503  0.24798431819E+02  0.52084124490E+02  0.12494991738E+03  0.22106379192E+03  0.17300000000E+03 0. -1.
</event>
<event>
 5   1  0.6181100E+00  0.8033965E+02  0.7957747E-01  0.1326654E+00
        1   -1    0    0  501    0  0.00000000000E+00  0.00000000000E+00  0.20831017691E+01  0.20831017691E+01  0.00000000000E+00 0. -1.
       -2   -1    0    0    0  501  0.00000000000E+00  0.00000000000E+00 -0.77462122067E+03  0.77462122067E+03  0.00000000000E+00 0.  1.
      -24    2    1    2    0    0  0.00000000000E+00  0.00000000000E+00 -0.77253811890E+03  0.77670432244E+03  0.80339649866E+02 0.  0.
       11    1    3    3    0    0 -0.11521354090E+02  0.29207007070E+02 -0.14402968581E+03  0.14741214759E+03  0.00000000000E+00 0. -1.
      -12    1    3    3    0    0  0.11521354090E+02 -0.29207007070E+02 -0.62850843309E+03  0.62929217485E+03  0.00000000000E+00 0.  1.
</event>
<event>
 4   3  0.6181100E+00  0.1736554E+03  0.7957747E-01  0.1179483E+00
       -4   -1    0    0    0  501  0.00000000000E+00  0.00000000000E+00  0.10038362163E+03  0.10038362163E+03  0.00000000000E+00 0.  1.
        4   -1    0    0  502    0  0.00000000000E+00  0.00000000000E+00 -0.35717147282E+03  0.35717147282E+03  0.00000000000E+00 0. -1.
        6    1    1    2  502    0 -0.19937392756E+01 -0.14940712254E+02 -0.37192102913E+02  0.17759350325E+03  0.17300000000E+03 0.  1.
       -6    1    1    2    0  501  0.19937392756E+01  0.14940712254E+02 -0.21959574828E+03  0.27996159119E+03  0.17300000000E+03 0. -1.
</event>
<event>
 5   1  0.6181100E+00  0.7998034E+02  0.7957747E-01  0.1327618E+00
       -2   -1    0    0    0  501  0.00000000000E+00  0.00000000000E+00  0.95210444128E+02  0.95210444128E+02  0.00000000000E+00 0.  1.
        1   -1    0    0  501    0  0.00000000000E+00  0.00000000000E+00 -0.16796622306E+02  0.16796622306E+02  0.00000000000E+00 0. -1.
      -24    2    1    2    0    0  0.00000000000E+00  0.00000000000E+00  0.78413821822E+02  0.11200706643E+03  0.79980344327E+02 0.  0.
       11    1    3    3    0    0 -0.31714286698E+02 -0.89687434219E+01  0.74884452212E+01  0.33798093898E+02  0.00000000000E+00 0. -1.
      -12    1    3    3    0    0  0.31714286698E+02  0.89687434219E+01  0.70925376600E+02  0.78208972537E+02  0.00000000000E+00 0.  1.
</event>
<event>
 5   1  0.6181100E+00  0.8146136E+02  0.7957747E-01  0.1323683E+00
        1   -1    0    0  501    0  0.00000000000E+00  0.00000000000E+00  0.93606259071E+01  0.93606259071E+01  0.00000000000E+00 0. -1.
       -2   -1    0    0    0  501  0.00000000000E+00  0.00000000000E+00 -0.17723049838E+03  0.17723049838E+03  0.00000000000E+00 0.  1.
      -24    2    1    2    0    0  0.00000000000E+00  0.00000000000E+00 -0.16786987248E+03  0.18659112429E+03  0.81461362490E+02 0.  0.
       11    1    3    3    0    0 -0.92425697409E+01 -0.15082285776E+02  0.10312621691E+00  0.17689292656E+02  0.00000000000E+00 0. -1.
      -12    1    3    3    0    0  0.92425697409E+01  0.15082285776E+02 -0.16797299869E+03  0.16890183163E+03  0.00000000000E+00 0.  1.
</event>
<event>
 5   1  0.6181100E+00  0.8125284E+02  0.7957747E-01  0.1324231E+00
       -2   -1    0    0    0  501  0.00000000000E+00  0.00000000000E+00  0.13191316706E+03  0.13191316706E+03  0.00000000000E+00 0.  1.
        1   -1    0    0  501    0  0.00000000000E+00  0.00000000000E+00 -0.12512065268E+02  0.12512065268E+02  0.00000000000E+00 0. -1.
      -24    2    1    2    0    0  0.00000000000E+00  0.00000000000E+00  0.11940110179E+03  0.14442523233E+03  0.81252843790E+02 0.  0.
       11    1    3    3    0    0  0.10061919337E+02 -0.21458674679E+01 -0.10158204015E+02  0.14458079981E+02  0.00000000000E+00 0. -1.
      -12    1    3    3    0    0 -0.10061919337E+02  0.21458674679E+01  0.12955930580E+03  0.12996715234E+03  0.00000000000E+00 0.  1.
</event>
<event>
 5   1  0.6181100E+00  0.7984404E+02  0.7957747E-01  0.1327985E+00
       -4   -1    0    0    0  501  0.00000000000E+00  0.00000000000E+00  0.13888607082E+03  0.13888607082E+03  0.00000000000E+00 0.  1.
        3   -1    0    0  501    0  0.00000000000E+00  0.00000000000E+00 -0.11475359286E+02  0.11475359286E+02  0.00000000000E+00 0. -1.
      -24    2    1    2    0    0  0.00000000000E+00  0.00000000000E+00  0.12741071154E+03  0.15036143011E+03  0.79844037033E+02 0.  0.
       11    1    3    3    0    0  0.26391653726E+02  0.29247049608E+02  0.75889206598E+02  0.85504859366E+02  0.00000000000E+00 0. -1.
      -12    1    3    3    0    0 -0.26391653726E+02 -0.29247049608E+02  0.51521504939E+02  0.64856570741E+02  0.00000000000E+00 0.  1.
</event>
<event>
 6   2  0.6181100E+00  0.8549557E+02  0.7957747E-01  0.1313429E+00
       21   -1    0    0  501  502  0.00000000000E+00  0.00000000000E+00  0.34516477415E+02  0.34516477415E+02  0.00000000000E+00 0. -1.
        1   -1    0    0  502    0  0.00000000000E+00  0.00000000000E+00 -0.94876206956E+02  0.94876206956E+02  0.00000000000E+00 0. -1.
      -24    2    1    2    0    0  0.13608060751E+02  0.25510681659E+02 -0.43556437980E+02  0.95951320712E+02  0.80458178333E+02 0.  0.
       11    1    3    3    0    0  0.10386270532E+02  0.53890323398E+02 -0.18382342859E+02  0.57878770724E+02  0.00000000000E+00 0. -1.
      -12    1    3    3    0    0  0.32217902193E+01 -0.28379641739E+02 -0.25174095120E+02  0.38072549988E+02  0.00000000000E+00 0.  1.
        2    1    1    2  501    0 -0.13608060751E+02 -0.25510681659E+02 -0.16803291561E+02  0.33441363660E+02  0.00000000000E+00 0. -1.
</event>
<event>
 5   1  0.6181100E+00  0.8039282E+02  0.7957747E-01  0.1326512E+00
        3   -1    0    0  501    0  0.00000000000E+00  0.00000000000E+00  0.29653955057E+02  0.29653955057E+02  0.00000000000E+00 0. -1.
       -4   -1    0    0    0  501  0.00000000000E+00  0.00000000000E+00 -0.54486876087E+02  0.54486876087E+02  0.00000000000E+00 0.  1.
      -24    2    1    2    0    0  0.00000000000E+00  0.00000000000E+00 -0.24832921031E+02  0.84140831144E+02  0.80392819945E+02 0.  0.
       11    1    3    3    0    0  0.19547429500E+02  0.12593822454E+01  0.24320739353E+02  0.31227974740E+02  0.00000000000E+00 0. -1.
      -12    1    3    3    0    0 -0.19547429500E+02 -0.12593822454E+01 -0.49153660384E+02  0.52912856404E+02  0.00000000000E+00 0.  1.
</event>
<event>
 5   1  0.6181100E+00  0.8294348E+02  0.7957747E-01  0.1319840E+00
        1   -1    0    0  501    0  0.00000000000E+00  0.00000000000E+00  0.41254329259E+02  0.41254329259E+02  0.00000000000E+00 0. -1.
       -2   -1    0    0    0  501  0.00000000000E+00  0.00000000000E+00 -0.41690299588E+02  0.41690299588E+02  0.00000000000E+00 0.  1.
      -24    2    1    2    0    0  0.00000000000E+00  0.00000000000E+00 -0.43597032925E+00  0.82944628848E+02  0.82943483074E+02 0.  0.
       11    1    3    3    0    0 -0.86618944833E+01  0.33159164365E+02  0.23134997847E+02  0.41349567384E+02  0.00000000000E+00 0. -1.
      -12    1    3    3    0    0  0.86618944833E+01 -0.33159164365E+02 -0.23570968177E+02  0.41595061464E+02  0.00000000000E+00 0.  1.
</event>
<event>
 5   1  0.6181100E+00  0.8047374E+02  0.7957747E-01  0.1326296E+00
       -4   -1    0    0    0  501  0.00000000000E+00  0.00000000000E+00  0.30057662347E+03  0.30057662347E+03  0.00000000000E+00 0.  1.
        3   -1    0    0  501    0  0.00000000000E+00  0.00000000000E+00 -0.53863325164E+01  0.53863325164E+01  0.00000000000E+00 0. -1.
      -24    2    1    2    0    0  0.00000000000E+00  0.00000000000E+00  0.29519029095E+03  0.30596295599E+03  0.80473738342E+02 0.  0.
       11    1    3    3    0    0  0.23190630836E+02 -0.15981734839E+02  0.38338460922E+02  0.47571617514E+02  0.00000000000E+00 0. -1.
      -12    1    3    3    0    0 -0.23190630836E+02  0.15981734839E+02  0.25685183003E+03  0.25839133847E+03  0.00000000000E+00 0.  1.
</event>
<event>
 5   1  0.6181100E+00  0.7707454E+02  0.7957747E-01  0.1335625E+00
        1   -1    0    0  501    0  0.00000000000E+00  0.00000000000E+00  0.14560529696E+02  0.14560529696E+02  0.00000000000E+00 0. -1.
       -2   -1    0    0    0  501  0.00000000000E+00  0.00000000000E+00 -0.10199638016E+03  0.10199638016E+03  0.00000000000E+00 0.  1.
      -24    2    1    2    0    0  0.00000000000E+00  0.00000000000E+00 -0.87435850466E+02  0.11655690986E+03  0.77074543716E+02 0.  0.
       11    1    3    3    0    0  0.12012056835E+02 -0.32767740389E+02 -0.19002408228E+02  0.39737964695E+02  0.00000000000E+00 0. -1.
      -12    1    3    3    0    0 -0.12012056835E+02  0.32767740389E+02 -0.68433442238E+02  0.76818945164E+02  0.00000000000E+00 0.  1.
</event>
<event>
 5   1  0.6181100E+00  0.7918273E+02  0.7957747E-01  0.1329777E+00
       -2   -1    0    0    0  501  0.00000000000E+00  0.00000000000E+00  0.31044700809E+02  0.31044700809E+02  0.00000000000E+00 0.  1.
        1   -1    0    0  501    0  0.00000000000E+00  0.00000000000E+00 -0.50490944902E+02  0.50490944902E+02  0.00000000000E+00 0. -1.
      -24    2    1    2    0    0  0.00000000000E+00  0.00000000000E+00 -0.19446244093E+02  0.81535645710E+02  0.79182732411E+02 0.  0.
       11    1    3    3    0    0 -0.93092838871E+01 -0.35984995715E+02 -0.23762544547E+02  0.44116223846E+02  0.00000000000E+00 0. -1.
      -12    1    3    3    0    0  0.93092838871E+01  0.35984995715E+02  0.43163004538E+01  0.37419421865E+02  0.00000000000E+00 0.  1.
</event>
<event>
 5   1  0.6181100E+00  0.7966310E+02  0.7957747E-01  0.1328473E+00
        1   -1    0    0  501    0  0.00000000000E+00  0.00000000000E+00  0.28019758449E+02  0.28019758449E+02  0.00000000000E+00 0. -1.
       -2   -1    0    0    0  501  0.00000000000E+00  0.00000000000E+00 -0.56622629399E+02  0.56622629399E+02  0.00000000000E+00 0.  1.
      -24    2    1    2    0    0  0.00000000000E+00  0.00000000000E+00 -0.28602870950E+02  0.84642387847E+02  0.79663100579E+02 0.  0.
       11    1    3    3    0    0  0.22639833249E+02 -0.32176359036E+02 -0.20908834322E+02  0.44554006363E+02  0.00000000000E+00 0. -1.
      -12    1    3    3    0    0 -0.22639833249E+02  0.32176359036E+02 -0.76940366282E+01  0.40088381484E+02  0.00000000000E+00 0.  1.
</event>
<event>
 5   1  0.6181100E+00  0.7916117E+02  0.7957747E-01  0.1329835E+00
        1   -1    0    0  501    0  0.00000000000E+00  0.00000000000E+00  0.10911051559E+03  0.10911051559E+03  0.00000000000E+00 0. -1.
       -2   -1    0    0    0  501  0.00000000000E+00  0.00000000000E+00 -0.14358129119E+02  0.14358129119E+02  0.00000000000E+00 0.  1.
      -24    2    1    2    0    0  0.00000000000E+00  0.00000000000E+00  0.94752386471E+02  0.12346864471E+03  0.79161174097E+02 0.  0.
       11    1    3    3    0    0  0.14947825888E+02  0.17013141739E+02  0.98006534357E+02  0.10058909119E+03  0.00000000000E+00 0. -1.
      -12    1    3    3    0    0 -0.14947825888E+02 -0.17013141739E+02 -0.32541478859E+01  0.22879553516E+02  0.00000000000E+00 0.  1.
</event>
<event>
 5   1  0.6181100E+00  0.7957015E+02  0.7957747E-01  0.1328724E+00
       -4   -1    0    0    0  501  0.00000000000E+00  0.00000000000E+00  0.85948930357E+02  0.85948930357E+02  0.00000000000E+00 0.  1.
        3   -1    0    0  501    0  0.00000000000E+00  0.00000000000E+00 -0.18416195214E+02  0.18416195214E+02  0.00000000000E+00 0. -1.
      -24    2    1    2    0    0  0.00000000000E+00  0.00000000000E+00  0.67532735143E+02  0.10436512557E+03  0.79570152190E+02 0.  0.
       11    1    3    3    0    0 -0.19302485601E+01  0.36038129426E+02  0.11804035480E+02  0.37971145435E+02  0.00000000000E+00 0. -1.
      -12    1    3    3    0    0  0.19302485601E+01 -0.36038129426E+02  0.55728699663E+02  0.66393980135E+02  0.00000000000E+00 0.  1.
</event>
<event>
 5   1  0.6181100E+00  0.8034938E+02  0.7957747E-01  0.1326628E+00
        3   -1    0    0  501    0  0.00000000000E+00  0.00000000000E+00  0.68329648163E+02  0.68329648163E+02  0.00000000000E+00 0. -1.
       -4   -1    0    0    0  501  0.00000000000E+00  0.00000000000E+00 -0.23620866885E+02  0.23620866885E+02  0.00000000000E+00 0.  1.
      -24    2    1    2    0    0  0.00000000000E+00  0.00000000000E+00  0.44708781278E+02  0.91950515048E+02  0.80349375195E+02 0.  0.
       11    1    3    3    0    0  0.47410676221E+01  0.24857625229E+02 -0.13353796631E+02  0.28612988986E+02  0.00000000000E+00 0. -1.
      -12    1    3    3    0    0 -0.47410676221E+01 -0.24857625229E+02  0.58062577909E+02  0.63337526062E+02  0.00000000000E+00 0.  1.
</event>
<event>
 5   1  0.6181100E+00  0.7870382E+02  0.7957747E-01  0.1331087E+00
       -4   -1    0    0    0  501  0.00000000000E+00  0.00000000000E+00  0.60953176742E+03  0.60953176742E+03  0.00000000000E+00 0.  1.
        3   -1    0    0  501    0  0.00000000000E+00  0.00000000000E+00 -0.25405944062E+01  0.25405944062E+01  0.00000000000E+00 0. -1.
      -24    2    1    2    0    0  0.00000000000E+00  0.00000000000E+00  0.60699117301E+03  0.61207236182E+03  0.78703824525E+02 0.  0.
       11    1    3    3    0    0 -0.81588345432E+01 -0.26070552565E+02  0.83210964347E+02  0.87580276774E+02  0.00000000000E+00 0. -1.
      -12    1    3    3    0    0  0.81588345432E+01  0.26070552565E+02  0.52378020866E+03  0.52449208505E+03  0.00000000000E+00 0.  1.
</event>
<event>
 6   2  0.6181100E+00  0.8524476E+02  0.7957747E-01  0.1314048E+00
       -2   -1    0    0    0  501  0.00000000000E+00  0.00000000000E+00  0.60168731809E+01  0.60168731809E+01  0.00000000000E+00 0.  1.
        1   -1    0    0  502    0  0.00000000000E+00  0.00000000000E+00 -0.54544180865E+03  0.54544180865E+03  0.00000000000E+00 0. -1.
      -24    2    1    2    0    0  0.43421746717E+01 -0.27584233458E+02 -0.36570070493E+03  0.37550456085E+03  0.80541450267E+02 0.  0.
       11    1    3    3    0    0  0.36717172597E+02 -0.14458853417E+02 -0.99794233761E+02  0.10731308540E+03  0.00000000000E+00 0. -1.
      -12    1    3    3    0    0 -0.32374997925E+02 -0.13125380041E+02 -0.26590647117E+03  0.26819147545E+03  0.00000000000E+00 0.  1.
       21    1    1    2  502  501 -0.43421746717E+01  0.27584233458E+02 -0.17372423054E+03  0.17595412099E+03  0.00000000000E+00 0. -1.
</event>
<event>
 5   1  0.6181100E+00  0.8075549E+02  0.7957747E-01  0.1325547E+00
       -2   -1    0    0    0  501  0.00000000000E+00  0.00000000000E+00  0.13752174025E+03  0.13752174025E+03  0.00000000000E+00 0.  1.
        1   -1    0    0  501    0  0.00000000000E+00  0.00000000000E+00 -0.11855307126E+02  0.11855307126E+02  0.00000000000E+00 0. -1.
      -24    2    1    2    0    0  0.00000000000E+00  0.00000000000E+00  0.12566643313E+03  0.14937704738E+03  0.80755494358E+02 0.  0.
       11    1    3    3    0    0 -0.16975233392E+02  0.74678631107E+01 -0.35114024017E+01  0.18874784104E+02  0.00000000000E+00 0. -1.
      -12    1    3    3    0    0  0.16975233392E+02 -0.74678631107E+01  0.12917783553E+03  0.13050226328E+03  0.00000000000E+00 0.  1.
</event>
<event>
 6   2  0.6181100E+00  0.8486902E+02  0.7957747E-01  0.1314980E+00
       21   -1    0    0  501  502  0.00000000000E+00  0.00000000000E+00  0.23119978101E+02  0.23119978101E+02  0.00000000000E+00 0. -1.
       -2   -1    0    0    0  501  0.00000000000E+00  0.00000000000E+00 -0.17524875263E+03  0.17524875263E+03  0.00000000000E+00 0.  1.
      -24    2    1    2    0    0  0.62978057230E+01 -0.25635883010E+02 -0.14940918594E+03  0.17183088951E+03  0.80659090568E+02 0.  0.
       11    1    3    3    0    0  0.12763270597E+02 -0.25000092584E+02 -0.65495910937E+01  0.28823650862E+02  0.00000000000E+00 0. -1.
      -12    1    3    3    0    0 -0.64654648736E+01 -0.63579042675E+00 -0.14285959485E+03  0.14300723865E+03  0.00000000000E+00 0.  1.
       -1    1    1    2    0  502 -0.62978057230E+01  0.25635883010E+02 -0.27195885890E+01  0.26537841222E+02  0.00000000000E+00 0.  1.
</event>
<event>
 5   1  0.6181100E+00  0.7820078E+02  0.7957747E-01  0.1332475E+00
       -2   -1    0    0    0  501  0.00000000000E+00  0.00000000000E+00  0.57106688504E+01  0.57106688504E+01  0.00000000000E+00 0.  1.
        1   -1    0    0  501    0  0.00000000000E+00  0.00000000000E+00 -0.26771653210E+03  0.26771653210E+03  0.00000000000E+00 0. -1.
      -24    2    1    2    0    0  0.00000000000E+00  0.00000000000E+00 -0.26200586325E+03  0.27342720095E+03  0.78200779040E+02 0.  0.
       11    1    3    3    0    0 -0.23280400141E+02  0.15656811260E+02 -0.35777514533E+02  0.45465847795E+02  0.00000000000E+00 0. -1.
      -12    1    3    3    0    0  0.23280400141E+02 -0.15656811260E+02 -0.22622834872E+03  0.22796135316E+03  0.00000000000E+00 0.  1.
</event>
<event>
 5   1  0.6181100E+00  0.8060928E+02  0.7957747E-01  0.1325935E+00
        3   -1    0    0  501    0  0.00000000000E+00  0.00000000000E+00  0.25331666122E+03  0.25331666122E+03  0.00000000000E+00 0. -1.
       -4   -1    0    0    0  501  0.00000000000E+00  0.00000000000E+00 -0.64127804565E+01  0.64127804565E+01  0.00000000000E+00 0.  1.
      -24    2    1    2    0    0  0.00000000000E+00  0.00000000000E+00  0.24690388076E+03  0.25972944168E+03  0.80609283196E+02 0.  0.
       11    1    3    3    0    0  0.32696418327E+02 -0.22080525256E+02  0.96909606624E+02  0.10463305990E+03  0.00000000000E+00 0. -1.
      -12    1    3    3    0    0 -0.32696418327E+02  0.22080525256E+02  0.14999427414E+03  0.15509638178E+03  0.00000000000E+00 0.  1.
</event>
<event>
 5   1  0.6181100E+00  0.8108223E+02  0.7957747E-01  0.1324681E+00
       -2   -1    0    0    0  501  0.00000000000E+00  0.00000000000E+00  0.15781667301E+02  0.15781667301E+02  0.00000000000E+00 0.  1.
        1   -1    0    0  501    0  0.00000000000E+00  0.00000000000E+00 -0.10414500787E+03  0.10414500787E+03  0.00000000000E+00 0. -1.
      -24    2    1    2    0    0  0.00000000000E+00  0.00000000000E+00 -0.88363340566E+02  0.11992667517E+03  0.81082226542E+02 0.  0.
       11    1    3    3    0    0  0.36397597450E+02 -0.50783876075E+01 -0.69499643494E+02  0.78617908689E+02  0.00000000000E+00 0. -1.
      -12    1    3    3    0    0 -0.36397597450E+02  0.50783876075E+01 -0.18863697072E+02  0.41308766479E+02  0.00000000000E+00 0.  1.
</event>
<event>
 6   2  0.6181100E+00  0.8206163E+02  0.7957747E-01  0.1322116E+00
       21   -1    0    0  501  502  0.00000000000E+00  0.00000000000E+00  0.62097024568E+02  0.62097024568E+02  0.00000000000E+00 0. -1.
       -2   -1    0    0    0  501  0.00000000000E+00  0.00000000000E+00 -0.43901491237E+02  0.43901491237E+02  0.00000000000E+00 0.  1.
      -24    2    1    2    0    0  0.29328474265E+01 -0.20346810031E+02  0.22295685531E+02  0.85036513979E+02  0.79445055504E+02 0.  0.
       11    1    3    3    0    0 -0.23586160002E+02  0.11152754038E+02  0.33406757630E+02  0.42387525542E+02  0.00000000000E+00 0. -1.
      -12    1    3    3    0    0  0.26519007428E+02 -0.31499564069E+02 -0.11111072099E+02  0.42648988437E+02  0.00000000000E+00 0.  1.
       -1    1    1    2    0  502 -0.29328474265E+01  0.20346810031E+02 -0.41001521995E+01  0.20962001825E+02  0.00000000000E+00 0.  1.
</event>
<event>
 4   3  0.6181100E+00  0.2158365E+03  0.7957747E-01  0.1143691E+00
       21   -1    0    0  503  502  0.00000000000E+00  0.00000000000E+00  0.22167153011E+03  0.22167153011E+03  0.00000000000E+00 0.  1.
       21   -1    0    0  501  503  0.00000000000E+00  0.00000000000E+00 -0.42056898340E+03  0.42056898340E+03  0.00000000000E+00 0.  1.
        6    1    1    2  501    0  0.17583308772E+02  0.12785628392E+03 -0.32658488715E+03  0.39146275762E+03  0.17300000000E+03 0.  1.
       -6    1    1    2    0  502 -0.17583308772E+02 -0.12785628392E+03  0.12768743386E+03  0.25077775589E+03  0.17300000000E+03 0.  1.
</event>
<event>
 6   2  0.6181100E+00  0.8139723E+02  0.7957747E-01  0.1323852E+00
       21   -1    0    0  501  502  0.00000000000E+00  0.00000000000E+00  0.60202029377E+01  0.60202029377E+01  0.00000000000E+00 0. -1.
       -4   -1    0    0    0  501  0.00000000000E+00  0.00000000000E+00 -0.43928959183E+03  0.43928959183E+03  0.00000000000E+00 0.  1.
      -24    2    1    2    0    0  0.21067898813E+02 -0.21509770695E+00 -0.32763133600E+03  0.33759117592E+03  0.78623196978E+02 0.  0.
       11    1    3    3    0    0  0.13574427616E+02 -0.20433233948E+02 -0.28168173840E+02  0.37352752939E+02  0.00000000000E+00 0. -1.
      -12    1    3    3    0    0  0.74934711969E+01  0.20218136241E+02 -0.29946316216E+03  0.30023842298E+03  0.00000000000E+00 0.  1.
       -3    1    1    2    0  502 -0.21067898813E+02  0.21509770695E+00 -0.10563805290E+03  0.10771861885E+03  0.00000000000E+00 0.  1.
</event>
<event>
 6   2  0.6181100E+00  0.8200437E+02  0.7957747E-01  0.1322264E+00
       -4   -1    0    0    0  501  0.00000000000E+00  0.00000000000E+00  0.17263963997E+03  0.17263963997E+03  0.00000000000E+00 0.  1.
        3   -1    0    0  502    0  0.00000000000E+00  0.00000000000E+00 -0.20043447899E+02  0.20043447899E+02  0.00000000000E+00 0. -1.
      -24    2    1    2    0    0  0.21784798608E+02  0.70167865057E+01  0.72756205082E+02  0.10962746635E+03  0.78745814223E+02 0.  0.
       11    1    3    3    0    0  0.21876919341E+02  0.12516565420E+02 -0.96863219760E+01  0.27001645194E+02  0.00000000000E+00 0. -1.
      -12    1    3    3    0    0 -0.92120732835E-01 -0.54997789143E+01  0.82442527058E+02  0.82625821158E+02  0.00000000000E+00 0.  1.
       21    1    1    2  502  501 -0.21784798608E+02 -0.70167865057E+01  0.79839986990E+02  0.83055621518E+02  0.00000000000E+00 0.  1.
</event>
<event>
 4   1  0.6181100E+00  0.1550125E+03  0.7957747E-01  0.1199081E+00
       -2   -1    0    0    0  501  0.00000000000E+00  0.00000000000E+00  0.16894774033E+02  0.16894774033E+02  0.00000000000E+00 0.  1.
        1   -1    0    0  501    0  0.00000000000E+00  0.00000000000E+00 -0.35556647814E+03  0.35556647814E+03  0.00000000000E+00 0. -1.
       11    1    1    2    0    0 -0.60640352172E+02  0.36505137002E+02 -0.93454391811E+02  0.11723310406E+03  0.00000000000E+00 0. -1.
      -12    1    1    2    0    0  0.60640352172E+02 -0.36505137002E+02 -0.24521731230E+03  0.25522814812E+03  0.00000000000E+00 0.  1.
</event>
<event>
 5   1  0.6181100E+00  0.7903227E+02  0.7957747E-01  0.1330187E+00
        1   -1    0    0  501    0  0.00000000000E+00  0.00000000000E+00  0.21463336932E+02  0.21463336932E+02  0.00000000000E+00 0. -1.
       -2   -1    0    0    0  501  0.00000000000E+00  0.00000000000E+00 -0.72753126949E+02  0.72753126949E+02  0.00000000000E+00 0.  1.
      -24    2    1    2    0    0  0.00000000000E+00  0.00000000000E+00 -0.51289790017E+02  0.94216463881E+02  0.79032268765E+02 0.  0.
       11    1    3    3    0    0 -0.27655293020E+02 -0.21619078150E+02 -0.40109973885E+01  0.35331117618E+02  0.00000000000E+00 0. -1.
      -12    1    3    3    0    0  0.27655293020E+02  0.21619078150E+02 -0.47278792629E+02  0.58885346263E+02  0.00000000000E+00 0.  1.
</event>
<event>
 5   1  0.6181100E+00  0.7322245E+02  0.7957747E-01  0.1346879E+00
        1   -1    0    0  501    0  0.00000000000E+00  0.00000000000E+00  0.36448065591E+03  0.36448065591E+03  0.00000000000E+00 0. -1.
       -2   -1    0    0    0  501  0.00000000000E+00  0.00000000000E+00 -0.36775112631E+01  0.36775112631E+01  0.00000000000E+00 0.  1.
      -24    2    1    2    0    0  0.00000000000E+00  0.00000000000E+00  0.36080314464E+03  0.36815816717E+03  0.73222447850E+02 0.  0.
       11    1    3    3    0    0 -0.21614001832E+02 -0.27671630319E+02  0.12827136964E+03  0.13299033224E+03  0.00000000000E+00 0. -1.
      -12    1    3    3    0    0  0.21614001832E+02  0.27671630319E+02  0.23253177500E+03  0.23516783493E+03  0.00000000000E+00 0.  1.
</event>
<event>
 5   1  0.6181100E+00  0.8193454E+02  0.7957747E-01  0.1322446E+00
       -2   -1    0    0    0  501  0.00000000000E+00  0.00000000000E+00  0.21491955539E+02  0.21491955539E+02  0.00000000000E+00 0.  1.
        1   -1    0    0  501    0  0.00000000000E+00  0.00000000000E+00 -0.78090481523E+02  0.78090481523E+02  0.00000000000E+00 0. -1.
      -24    2    1    2    0    0  0.00000000000E+00  0.00000000000E+00 -0.56598525984E+02  0.99582437062E+02  0.81934538674E+02 0.  0.
       11    1    3    3    0    0 -0.14682131537E+02  0.72677034767E+01 -0.73936035456E+02  0.75729266728E+02  0.00000000000E+00 0. -1.
      -12    1    3    3    0    0  0.14682131537E+02 -0.72677034767E+01  0.17337509472E+02  0.23853170334E+02  0.00000000000E+00 0.  1.
</event>
<event>
 4   3  0.6181100E+00  0.2667420E+03  0.7957747E-01  0.1110863E+00
       21   -1    0    0  503  502  0.00000000000E+00  0.00000000000E+00  0.27858430672E+03  0.27858430672E+03  0.00000000000E+00 0. -1.
       21   -1    0    0  501  503  0.00000000000E+00  0.00000000000E+00 -0.48560993000E+03  0.48560993000E+03  0.00000000000E+00 0. -1.
        6    1    1    2  501    0 -0.14121043510E+03  0.14588317256E+03 -0.36659358760E+03  0.45336756113E+03  0.17300000000E+03 0. -1.
       -6    1    1    2    0  502  0.14121043510E+03 -0.14588317256E+03  0.15956796432E+03  0.31082667559E+03  0.17300000000E+03 0. -1.
</event>
<event>
 6   2  0.6181100E+00  0.8233908E+02  0.7957747E-01  0.1321396E+00
        3   -1    0    0  502    0  0.00000000000E+00  0.00000000000E+00  0.26115977586E+03  0.26115977586E+03  0.00000000000E+00 0. -1.
       -4   -1    0    0    0  501  0.00000000000E+00  0.00000000000E+00 -0.10435210596E+02  0.10435210596E+02  0.00000000000E+00 0.  1.
      -24    2    1    2    0    0  0.19176893422E+02 -0.78832626084E+01  0.18090938509E+03  0.19876601932E+03  0.79685793929E+02 0.  0.
       11    1    3    3    0    0  0.26981880778E+02  0.22502877943E+02  0.15232467123E+03  0.15632404445E+03  0.00000000000E+00 0. -1.
      -12    1    3    3    0    0 -0.78049873562E+01 -0.30386140551E+02  0.28584713855E+02  0.42441974876E+02  0.00000000000E+00 0.  1.
       21    1    1    2  502  501 -0.19176893422E+02  0.78832626084E+01  0.69815180172E+02  0.72828967129E+02  0.00000000000E+00 0. -1.
</event>
<event>
 5   1  0.6181100E+00  0.7854441E+02  0.7957747E-01  0.1331525E+00
        1   -1    0    0  501    0  0.00000000000E+00  0.00000000000E+00  0.10369516475E+03  0.10369516475E+03  0.00000000000E+00 0. -1.
       -2   -1    0    0    0  501  0.00000000000E+00  0.00000000000E+00 -0.14873462974E+02  0.14873462974E+02  0.00000000000E+00 0.  1.
      -24    2    1    2    0    0  0.00000000000E+00  0.00000000000E+00  0.88821701780E+02  0.11856862773E+03  0.78544412750E+02 0.  0.
       11    1    3    3    0    0  0.15985099072E+02 -0.25998743232E+02  0.81720496905E+02  0.87233581013E+02  0.00000000000E+00 0. -1.
      -12    1    3    3    0    0 -0.15985099072E+02  0.25998743232E+02  0.71012048753E+01  0.31335046716E+02  0.00000000000E+00 0.  1.
</event>
<event>
 5   1  0.6181100E+00  0.7909289E+02  0.7957747E-01  0.1330022E+00
       -4   -1    0    0    0  501  0.00000000000E+00  0.00000000000E+00  0.33479113860E+03  0.33479113860E+03  0.00000000000E+00 0.  1.
        3   -1    0    0  501    0  0.00000000000E+00  0.00000000000E+00 -0.46713343885E+01  0.46713343885E+01  0.00000000000E+00 0. -1.
      -24    2    1    2    0    0  0.00000000000E+00  0.00000000000E+00  0.33011980422E+03  0.33946247299E+03  0.79092891178E+02 0.  0.
       11    1    3    3    0    0  0.23034118911E+02  0.71957981475E+01  0.30593053631E+02  0.38965177729E+02  0.00000000000E+00 0. -1.
      -12    1    3    3    0    0 -0.23034118911E+02 -0.71957981475E+01  0.29952675058E+03  0.30049729526E+03  0.00000000000E+00 0.  1.
</event>
<event>
 5   1  0.6181100E+00  0.8219032E+02  0.7957747E-01  0.1321781E+00
        1   -1    0    0  501    0  0.00000000000E+00  0.00000000000E+00  0.24718722407E+02  0.24718722407E+02  0.00000000000E+00 0. -1.
       -2   -1    0    0    0  501  0.00000000000E+00  0.00000000000E+00 -0.68321172563E+02  0.68321172563E+02  0.00000000000E+00 0.  1.
      -24    2    1    2    0    0  0.00000000000E+00  0.00000000000E+00 -0.43602450156E+02  0.93039894970E+02  0.82190318143E+02 0.  0.
       11    1    3    3    0    0  0.31256046294E+02 -0.17965204126E+02 -0.44131396757E+02  0.56984815249E+02  0.00000000000E+00 0. -1.
      -12    1    3    3    0    0 -0.31256046294E+02  0.17965204126E+02  0.52894660030E+00  0.36055079722E+02  0.00000000000E+00 0.  1.
</event>
<event>
 5   1  0.6181100E+00  0.8015460E+02  0.7957747E-01  0.1327150E+00
       -2   -1    0    0    0  501  0.00000000000E+00  0.00000000000E+00  0.11140651124E+03  0.11140651124E+03  0.00000000000E+00 0.  1.
        1   -1    0    0  501    0  0.00000000000E+00  0.00000000000E+00 -0.14417378069E+02  0.14417378069E+02  0.00000000000E+00 0. -1.
      -24    2    1    2    0    0  0.00000000000E+00  0.00000000000E+00  0.96989133173E+02  0.12582388931E+03  0.80154595425E+02 0.  0.
       11    1    3    3    0    0  0.32647106453E+02 -0.12486874266E+02  0.17716191421E+02  0.39186975223E+02  0.00000000000E+00 0. -1.
      -12    1    3    3    0    0 -0.32647106453E+02  0.12486874266E+02  0.79272941752E+02  0.86636914088E+02  0.00000000000E+00 0.  1.
</event>
<event>
 5   1  0.6181100E+00  0.8265501E+02  0.7957747E-01  0.1320581E+00
       -2   -1    0    0    0  501  0.00000000000E+00  0.00000000000E+00  0.13871779224E+02  0.13871779224E+02  0.00000000000E+00 0.  1.
        1   -1    0    0  501    0  0.00000000000E+00  0.00000000000E+00 -0.12312499407E+03  0.12312499407E+03  0.00000000000E+00 0. -1.
      -24    2    1    2    0    0  0.00000000000E+00  0.00000000000E+00 -0.10925321484E+03  0.13699677329E+03  0.82655011575E+02 0.  0.
       11    1    3    3    0    0  0.39565706804E+01  0.27014821412E+02 -0.10604793147E+03  0.10950625003E+03  0.00000000000E+00 0. -1.
      -12    1    3    3    0    0 -0.39565706804E+01 -0.27014821412E+02 -0.32052833746E+01  0.27490523258E+02  0.00000000000E+00 0.  1.
</event>
<event>
 5   1  0.6181100E+00  0.6710830E+02  0.7957747E-01  0.1366460E+00
        1   -1    0    0  501    0  0.00000000000E+00  0.00000000000E+00  0.16708076520E+03  0.16708076520E+03  0.00000000000E+00 0. -1.
       -2   -1    0    0    0  501  0.00000000000E+00  0.00000000000E+00 -0.67385441471E+01  0.67385441471E+01  0.00000000000E+00 0.  1.
      -24    2    1    2    0    0  0.00000000000E+00  0.00000000000E+00  0.16034222105E+03  0.17381930935E+03  0.67108303881E+02 0.  0.
       11    1    3    3    0    0 -0.20212538387E+02 -0.26475133018E+02  0.90660897462E+02  0.96586115488E+02  0.00000000000E+00 0. -1.
      -12    1    3    3    0    0  0.20212538387E+02  0.26475133018E+02  0.69681323591E+02  0.77233193860E+02  0.00000000000E+00 0.  1.
</event>
<event>
 5   1  0.6181100E+00  0.8142828E+02  0.7957747E-01  0.1323770E+00
        3   -1    0    0  501    0  0.00000000000E+00  0.00000000000E+00  0.90470530486E+01  0.90470530486E+01  0.00000000000E+00 0. -1.
       -4   -1    0    0    0  501  0.00000000000E+00  0.00000000000E+00 -0.18322444827E+03  0.18322444827E+03  0.00000000000E+00 0.  1.
      -24    2    1    2    0    0  0.00000000000E+00  0.00000000000E+00 -0.17417739522E+03  0.19227150132E+03  0.81428282638E+02 0.  0.
       11    1    3    3    0    0 -0.11866903953E+02  0.26685884599E+02 -0.15406969943E+03  0.15681336718E+03  0.00000000000E+00 0. -1.
      -12    1    3    3    0    0  0.11866903953E+02 -0.26685884599E+02 -0.20107695800E+02  0.35458134139E+02  0.00000000000E+00 0.  1.
</event>
<event>
 5   1  0.6181100E+00  0.7454111E+02  0.7957747E-01  0.1342940E+00
       -2   -1    0    0    0  501  0.00000000000E+00  0.00000000000E+00  0.54042640831E+02  0.54042640831E+02  0.00000000000E+00 0.  1.
        1   -1    0    0  501    0  0.00000000000E+00  0.00000000000E+00 -0.25703673991E+02  0.25703673991E+02  0.00000000000E+00 0. -1.
      -24    2    1    2    0    0  0.00000000000E+00  0.00000000000E+00  0.28338966840E+02  0.79746314823E+02  0.74541114066E+02 0.  0.
       11    1    3    3    0    0  0.47267134942E+01 -0.14054846542E+02 -0.22412034870E+02  0.26873403930E+02  0.00000000000E+00 0. -1.
      -12    1    3    3    0    0 -0.47267134942E+01  0.14054846542E+02  0.50751001709E+02  0.52872910893E+02  0.00000000000E+00 0.  1.
</event>
<event>
 5   1  0.6181100E+00  0.8237450E+02  0.7957747E-01  0.1321304E+00
        1   -1    0    0  501    0  0.00000000000E+00  0.00000000000E+00  0.91386544154E+02  0.91386544154E+02  0.00000000000E+00 0. -1.
       -2   -1    0    0    0  501  0.00000000000E+00  0.00000000000E+00 -0.18562793449E+02  0.18562793449E+02  0.00000000000E+00 0.  1.
      -24    2    1    2    0    0  0.00000000000E+00  0.00000000000E+00  0.72823750705E+02  0.10994933760E+03  0.82374499528E+02 0.  0.
       11    1    3    3    0    0 -0.18113590270E+02 -0.14113619677E+02  0.82049641906E+02  0.85202348265E+02  0.00000000000E+00 0. -1.
      -12    1    3    3    0    0  0.18113590270E+02  0.14113619677E+02 -0.92258912010E+01  0.24746989338E+02  0.00000000000E+00 0.  1.
</event>
<event>
 6   2  0.6181100E+00  0.9380050E+02  0.7957747E-01  0.1294201E+00
       21   -1    0    0  501  502  0.00000000000E+00  0.00000000000E+00  0.16774925197E+02  0.16774925197E+02  0.00000000000E+00 0.  1.
        1   -1    0    0  502    0  0.00000000000E+00  0.00000000000E+00 -0.32824893306E+03  0.32824893306E+03  0.00000000000E+00 0. -1.
      -24    2    1    2    0    0 -0.37552651818E+02  0.32812352884E+02 -0.15904981931E+03  0.18464934215E+03  0.79446097285E+02 0.  0.
       11    1    3    3    0    0  0.22608879363E+02  0.14367604817E+02 -0.25346774137E+02  0.36878834762E+02  0.00000000000E+00 0. -1.
      -12    1    3    3    0    0 -0.60161531182E+02  0.18444748067E+02 -0.13370304518E+03  0.14777050739E+03  0.00000000000E+00 0.  1.
        2    1    1    2  501    0  0.37552651818E+02 -0.32812352884E+02 -0.15242418855E+03  0.16037451611E+03  0.00000000000E+00 0. -1.
</event>
<event>
 5   1  0.6181100E+00  0.8901826E+02  0.7957747E-01  0.1304985E+00
       -2   -1    0    0    0  501  0.00000000000E+00  0.00000000000E+00  0.35100310499E+02  0.35100310499E+02  0.00000000000E+00 0.  1.
        1   -1    0    0  501    0  0.00000000000E+00  0.00000000000E+00 -0.56440031335E+02  0.56440031335E+02  0.00000000000E+00 0. -1.
      -24    2    1    2    0    0  0.00000000000E+00  0.00000000000E+00 -0.21339720835E+02  0.91540341834E+02  0.89018259350E+02 0.  0.
       11    1    3    3    0    0  0.35295262768E+02  0.25658781513E+02 -0.19689569647E+02  0.47872829407E+02  0.00000000000E+00 0. -1.
      -12    1    3    3    0    0 -0.35295262768E+02 -0.25658781513E+02 -0.16501511880E+01  0.43667512427E+02  0.00000000000E+00 0.  1.
</event>
<event>
 6   2  0.6181100E+00  0.9214326E+02  0.7957747E-01  0.1297855E+00
       -4   -1    0    0    0  501  0.00000000000E+00  0.00000000000E+00  0.99527501331E+02  0.99527501331E+02  0.00000000000E+00 0.  1.
       21   -1    0    0  501  502  0.00000000000E+00  0.00000000000E+00 -0.45779880488E+02  0.45779880488E+02  0.00000000000E+00 0.  1.
      -24    2    1    2    0    0 -0.21820049948E+02 -0.16060065278E+02  0.68165829661E+02  0.11461658480E+03  0.88070090840E+02 0.  0.
       11    1    3    3    0    0 -0.38760894361E+02  0.20669765931E+02  0.12248547335E+02  0.45603432624E+02  0.00000000000E+00 0. -1.
      -12    1    3    3    0    0  0.16940844413E+02 -0.36729831209E+02  0.55917282326E+02  0.69013152172E+02  0.00000000000E+00 0.  1.
       -3    1    1    2    0  502  0.21820049948E+02  0.16060065278E+02 -0.14418208818E+02  0.30690797024E+02  0.00000000000E+00 0.  1.
</event>
<event>
 5   1  0.6181100E+00  0.8593825E+02  0.7957747E-01  0.1312343E+00
        3   -1    0    0  501    0  0.00000000000E+00  0.00000000000E+00  0.19094445481E+03  0.19094445481E+03  0.00000000000E+00 0. -1.
       -4   -1    0    0    0  501  0.00000000000E+00  0.00000000000E+00 -0.96695439464E+01  0.96695439464E+01  0.00000000000E+00 0.  1.
      -24    2    1    2    0    0  0.00000000000E+00  0.00000000000E+00  0.18127491086E+03  0.20061399875E+03  0.85938252183E+02 0.  0.
       11    1    3    3    0    0  0.33066047123E+02 -0.43611416718E+01  0.15388034911E+03  0.15745331013E+03  0.00000000000E+00 0. -1.
      -12    1    3    3    0    0 -0.33066047123E+02  0.43611416718E+01  0.27394561755E+02  0.43160688627E+02  0.00000000000E+00 0.  1.
</event>
<event>
 5   1  0.6181100E+00  0.7645065E+02  0.7957747E-01  0.1337396E+00
       -2   -1    0    0    0  501  0.00000000000E+00  0.00000000000E+00  0.34965778673E+02  0.34965778673E+02  0.00000000000E+00 0.  1.
        1   -1    0    0  501    0  0.00000000000E+00  0.00000000000E+00 -0.41788725379E+02  0.41788725379E+02  0.00000000000E+00 0. -1.
      -24    2    1    2    0    0  0.00000000000E+00  0.00000000000E+00 -0.68229467055E+01  0.76754504052E+02  0.76450646109E+02 0.  0.
       11    1    3    3    0    0  0.10551959365E+02  0.67518140692E+01 -0.39669337206E+02  0.41600326369E+02  0.00000000000E+00 0. -1.
      -12    1    3    3    0    0 -0.10551959365E+02 -0.67518140692E+01  0.32846390500E+02  0.35154177683E+02  0.00000000000E+00 0.  1.
</event>
<event>
 5   1  0.6181100E+00  0.8086769E+02  0.7957747E-01  0.1325249E+00
       -4   -1    0    0    0  501  0.00000000000E+00  0.00000000000E+00  0.98889391281E+02  0.98889391281E+02  0.00000000000E+00 0.  1.
        3   -1    0    0  501    0  0.00000000000E+00  0.00000000000E+00 -0.16532570755E+02  0.16532570755E+02  0.00000000000E+00 0. -1.
      -24    2    1    2    0    0  0.00000000000E+00  0.00000000000E+00  0.82356820525E+02  0.11542196204E+03  0.80867690910E+02 0.  0.
       11    1    3    3    0    0  0.11267973564E+02  0.14823076673E+01 -0.14205952442E+02  0.18192678446E+02  0.00000000000E+00 0. -1.
      -12    1    3    3    0    0 -0.11267973564E+02 -0.14823076673E+01  0.96562772967E+02  0.97229283590E+02  0.00000000000E+00 0.  1.
</event>
<event>
 6   2  0.6181100E+00  0.8619328E+02  0.7957747E-01  0.1311721E+00
       21   -1    0    0  501  502  0.00000000000E+00  0.00000000000E+00  0.46752469839E+02  0.46752469839E+02  0.00000000000E+00 0. -1.
        3   -1    0    0  502    0  0.00000000000E+00  0.00000000000E+00 -0.92195197600E+02  0.92195197600E+02  0.00000000000E+00 0. -1.
      -24    2    1    2    0    0 -0.27749683893E+02  0.13928164128E+02 -0.59631507879E+02  0.10481029505E+03  0.80406731714E+02 0.  0.
       11    1    3    3    0    0 -0.34636934391E+02  0.13740649829E+02 -0.77318185677E+02  0.85829042393E+02  0.00000000000E+00 0. -1.
      -12    1    3    3    0    0  0.68872504977E+01  0.18751429906E+00  0.17686677798E+02  0.18981252660E+02  0.00000000000E+00 0.  1.
        4    1    1    2  501    0  0.27749683893E+02 -0.13928164128E+02  0.14188780118E+02  0.34137372386E+02  0.00000000000E+00 0. -1.
</event>
<event>
 5   1  0.6181100E+00  0.8065865E+02  0.7957747E-01  0.1325804E+00
        1   -1    0    0  501    0  0.00000000000E+00  0.00000000000E+00  0.12260414714E+03  0.12260414714E+03  0.00000000000E+00 0. -1.
       -2   -1    0    0    0  501  0.00000000000E+00  0.00000000000E+00 -0.13265902050E+02  0.13265902050E+02  0.00000000000E+00 0.  1.
      -24    2    1    2    0    0  0.00000000000E+00  0.00000000000E+00  0.10933824509E+03  0.13587004919E+03  0.80658653768E+02 0.  0.
       11    1    3    3    0    0  0.91635556422E+01 -0.38810707232E+02  0.64805999400E+02  0.76092439218E+02  0.00000000000E+00 0. -1.
      -12    1    3    3    0    0 -0.91635556422E+01  0.38810707232E+02  0.44532245692E+02  0.59777609974E+02  0.00000000000E+00 0.  1.
</event>
<event>
 5   1  0.6181100E+00  0.8061037E+02  0.7957747E-01  0.1325932E+00
       -2   -1    0    0    0  501  0.00000000000E+00  0.00000000000E+00  0.27637179225E+02  0.27637179225E+02  0.00000000000E+00 0.  1.
        1   -1    0    0  501    0  0.00000000000E+00  0.00000000000E+00 -0.58779804233E+02  0.58779804233E+02  0.00000000000E+00 0. -1.
      -24    2    1    2    0    0  0.00000000000E+00  0.00000000000E+00 -0.31142625009E+02  0.86416983458E+02  0.80610371154E+02 0.  0.
       11    1    3    3    0    0 -0.14184840017E+02 -0.61510842843E+01 -0.55474313871E+02  0.57588584143E+02  0.00000000000E+00 0. -1.
      -12    1    3    3    0    0  0.14184840017E+02  0.61510842843E+01  0.24331688862E+02  0.28828399315E+02  0.00000000000E+00 0.  1.
</event>
<event>
 6   2  0.6181100E+00  0.8212383E+02  0.7957747E-01  0.1321954E+00
       -4   -1    0    0    0  501  0.00000000000E+00  0.00000000000E+00  0.81852399769E+02  0.81852399769E+02  0.00000000000E+00 0.  1.
       21   -1    0    0  501  502  0.00000000000E+00  0.00000000000E+00 -0.11546359616E+03  0.11546359616E+03  0.00000000000E+00 0.  1.
      -24    2    1    2    0    0 -0.26444408614E+01 -0.28602046564E+02  0.58500386657E+02  0.10082965562E+03  0.76936688763E+02 0.  0.
       11    1    3    3    0    0  0.32276324898E+02 -0.13587460134E+02  0.52604265925E+01  0.35412601002E+02  0.00000000000E+00 0. -1.
      -12    1    3    3    0    0 -0.34920765759E+02 -0.15014586430E+02  0.53239960065E+02  0.65417054615E+02  0.00000000000E+00 0.  1.
       -3    1    1    2    0  502  0.26444408614E+01  0.28602046564E+02 -0.92111583051E+02  0.96486340315E+02  0.00000000000E+00 0.  1.
</event>
<event>
 6   2  0.6181100E+00  0.8254051E+02  0.7957747E-01  0.1320876E+00
       21   -1    0    0  501  502  0.00000000000E+00  0.00000000000E+00  0.39593011015E+02  0.39593011015E+02  0.00000000000E+00 0. -1.
       -4   -1    0    0    0  501  0.00000000000E+00  0.00000000000E+00 -0.91311437961E+02  0.91311437961E+02  0.00000000000E+00 0.  1.
      -24    2    1    2    0    0  0.21259334968E+02  0.48524174366E+01 -0.91119128883E+01  0.83041934223E+02  0.79607980785E+02 0.  0.
       11    1    3    3    0    0  0.18775575565E+02  0.54382805029E+01  0.34340774319E+02  0.39514376035E+02  0.00000000000E+00 0. -1.
      -12    1    3    3    0    0  0.24837594030E+01 -0.58586306631E+00 -0.43452687207E+02  0.43527558188E+02  0.00000000000E+00 0.  1.
       -3    1    1    2    0  502 -0.21259334968E+02 -0.48524174366E+01 -0.42606514058E+02  0.47862514752E+02  0.00000000000E+00 0.  1.
</event>
<event>
 5   1  0.6181100E+00  0.7760730E+02  0.7957747E-01  0.1334127E+00
       -4   -1    0    0    0  501  0.00000000000E+00  0.00000000000E+00  0.26833021271E+03  0.26833021271E+03  0.00000000000E+00 0.  1.
        3   -1    0    0  501    0  0.00000000000E+00  0.00000000000E+00 -0.56114563249E+01  0.56114563249E+01  0.00000000000E+00 0. -1.
      -24    2    1    2    0    0  0.00000000000E+00  0.00000000000E+00  0.26271875638E+03  0.27394166903E+03  0.77607300411E+02 0.  0.
       11    1    3    3    0    0 -0.16849217821E+02  0.21340168948E+02  0.33637870543E+02  0.43252806690E+02  0.00000000000E+00 0. -1.
      -12    1    3    3    0    0  0.16849217821E+02 -0.21340168948E+02  0.22908088584E+03  0.23068886234E+03  0.00000000000E+00 0.  1.
</event>
<event>
 6   2  0.6181100E+00  0.8500466E+02  0.7957747E-01  0.1314643E+00
       -2   -1    0    0    0  501  0.00000000000E+00  0.00000000000E+00  0.26890798124E+03  0.26890798124E+03  0.00000000000E+00 0.  1.
       21   -1    0    0  501  502  0.00000000000E+00  0.00000000000E+00 -0.11109009083E+02  0.11109009083E+02  0.00000000000E+00 0. -1.
      -24    2    1    2    0    0 -0.24173092741E+02 -0.12581837349E+00  0.20630793294E+03  0.22313394046E+03  0.81495017913E+02 0.  0.
       11    1    3    3    0    0 -0.85230771581E+01 -0.11137397454E+02 -0.18076695679E+01  0.14140443259E+02  0.00000000000E+00 0. -1.
      -12    1    3    3    0    0 -0.15650015583E+02  0.11011579080E+02  0.20811560251E+03  0.20899349720E+03  0.00000000000E+00 0.  1.
       -1    1    1    2    0  502  0.24173092741E+02  0.12581837349E+00  0.51491039213E+02  0.56883049867E+02  0.00000000000E+00 0.  1.
</event>
<event>
 6   2  0.6181100E+00  0.8569041E+02  0.7957747E-01  0.1312951E+00
       -2   -1    0    0    0  501  0.00000000000E+00  0.00000000000E+00  0.24949376122E+03  0.24949376122E+03  0.00000000000E+00 0.  1.
       21   -1    0    0  501  502  0.00000000000E+00  0.00000000000E+00 -0.13359625266E+02  0.13359625266E+02  0.00000000000E+00 0. -1.
      -24    2    1    2    0    0 -0.48859576338E+01  0.29165563567E+02  0.18217842642E+03  0.20132517124E+03  0.80426008487E+02 0.  0.
       11    1    3    3    0    0 -0.10044647457E+02  0.34022412788E+02  0.23642115766E+02  0.42630612854E+02  0.00000000000E+00 0. -1.
      -12    1    3    3    0    0  0.51586898236E+01 -0.48568492203E+01  0.15853631065E+03  0.15869455838E+03  0.00000000000E+00 0.  1.
       -1    1    1    2    0  502  0.48859576338E+01 -0.29165563567E+02  0.53955709531E+02  0.61528215245E+02  0.00000000000E+00 0.  1.
</event>
<event>
 5   1  0.6181100E+00  0.8010032E+02  0.7957747E-01  0.1327295E+00
        3   -1    0    0  501    0  0.00000000000E+00  0.00000000000E+00  0.95139952879E+01  0.95139952879E+01  0.00000000000E+00 0. -1.
       -4   -1    0    0    0  501  0.00000000000E+00  0.00000000000E+00 -0.16859534507E+03  0.16859534507E+03  0.00000000000E+00 0.  1.
      -24    2    1    2    0    0  0.00000000000E+00  0.00000000000E+00 -0.15908134978E+03  0.17810934035E+03  0.80100320062E+02 0.  0.
       11    1    3    3    0    0 -0.26937805688E+02 -0.13483324404E+02 -0.20854635921E+02  0.36638248480E+02  0.00000000000E+00 0. -1.
      -12    1    3    3    0    0  0.26937805688E+02  0.13483324404E+02 -0.13822671386E+03  0.14147109187E+03  0.00000000000E+00 0.  1.
</event>
<event>
 5   1  0.6181100E+00  0.7168909E+02  0.7957747E-01  0.1351580E+00
       -4   -1    0    0    0  501  0.00000000000E+00  0.00000000000E+00  0.83280811031E+02  0.83280811031E+02  0.00000000000E+00 0.  1.
        3   -1    0    0  501    0  0.00000000000E+00  0.00000000000E+00 -0.15427701279E+02  0.15427701279E+02  0.00000000000E+00 0. -1.
      -24    2    1    2    0    0  0.00000000000E+00  0.00000000000E+00  0.67853109753E+02  0.98708512310E+02  0.71689091913E+02 0.  0.
       11    1    3    3    0    0  0.23172567883E+02 -0.24362154881E+01 -0.35778719720E+01  0.23573379394E+02  0.00000000000E+00 0. -1.
      -12    1    3    3    0    0 -0.23172567883E+02  0.24362154881E+01  0.71430981725E+02  0.75135132916E+02  0.00000000000E+00 0.  1.
</event>
<event>
 5   1  0.6181100E+00  0.8187791E+02  0.7957747E-01  0.1322594E+00
        3   -1    0    0  501    0  0.00000000000E+00  0.00000000000E+00  0.69919199089E+01  0.69919199089E+01  0.00000000000E+00 0. -1.
       -4   -1    0    0    0  501  0.00000000000E+00  0.00000000000E+00 -0.23970499232E+03  0.23970499232E+03  0.00000000000E+00 0.  1.
      -24    2    1    2    0    0  0.00000000000E+00  0.00000000000E+00 -0.23271307241E+03  0.24669691223E+03  0.81877911748E+02 0.  0.
       11    1    3    3    0    0 -0.27145426134E+02  0.28814750671E+02 -0.84923999252E+02  0.93697650265E+02  0.00000000000E+00 0. -1.
      -12    1    3    3    0    0  0.27145426134E+02 -0.28814750671E+02 -0.14778907315E+03  0.15299926196E+03  0.00000000000E+00 0.  1.
</event>
<event>
 5   1  0.6181100E+00  0.7919096E+02  0.7957747E-01  0.1329754E+00
       -4   -1    0    0    0  501  0.00000000000E+00  0.00000000000E+00  0.22974334653E+03  0.22974334653E+03  0.00000000000E+00 0.  1.
        3   -1    0    0  501    0  0.00000000000E+00  0.00000000000E+00 -0.68241454613E+01  0.68241454613E+01  0.00000000000E+00 0. -1.
      -24    2    1    2    0    0  0.00000000000E+00  0.00000000000E+00  0.22291920107E+03  0.23656749199E+03  0.79190959471E+02 0.  0.
       11    1    3    3    0    0 -0.44081057311E+01 -0.29409632008E+02  0.33363206664E+02  0.44692968237E+02  0.00000000000E+00 0. -1.
      -12    1    3    3    0    0  0.44081057311E+01  0.29409632008E+02  0.18955599441E+03  0.19187452376E+03  0.00000000000E+00 0.  1.
</event>
<event>
 5   1  0.6181100E+00  0.7328250E+02  0.7957747E-01  0.1346697E+00
        1   -1    0    0  501    0  0.00000000000E+00  0.00000000000E+00  0.18061234095E+02  0.18061234095E+02  0.00000000000E+00 0. -1.
       -2   -1    0    0    0  501  0.00000000000E+00  0.00000000000E+00 -0.74334964249E+02  0.74334964249E+02  0.00000000000E+00 0.  1.
      -24    2    1    2    0    0  0.00000000000E+00  0.00000000000E+00 -0.56273730153E+02  0.92396198344E+02  0.73282499705E+02 0.  0.
       11    1    3    3    0    0  0.22278567739E+02  0.20896647427E+01  0.84460998701E+01  0.23917313441E+02  0.00000000000E+00 0. -1.
      -12    1    3    3    0    0 -0.22278567739E+02 -0.20896647427E+01 -0.64719830024E+02  0.68478884903E+02  0.00000000000E+00 0.  1.
</event>
<event>
 5   1  0.6181100E+00  0.8067375E+02  0.7957747E-01  0.1325764E+00
       -4   -1    0    0    0  501  0.00000000000E+00  0.00000000000E+00  0.17117542955E+03  0.17117542955E+03  0.00000000000E+00 0.  1.
        3   -1    0    0  501    0  0.00000000000E+00  0.00000000000E+00 -0.95052400648E+01  0.95052400648E+01  0.00000000000E+00 0. -1.
      -24    2    1    2    0    0  0.00000000000E+00  0.00000000000E+00  0.16167018949E+03  0.18068066962E+03  0.80673751644E+02 0.  0.
       11    1    3    3    0    0  0.87531966773E+01 -0.14929455460E+02 -0.76787001143E+00  0.17323299823E+02  0.00000000000E+00 0. -1.
      -12    1    3    3    0    0 -0.87531966773E+01  0.14929455460E+02  0.16243805950E+03  0.16335736979E+03  0.00000000000E+00 0.  1.
</event>
<event>
 5   1  0.6181100E+00  0.8079032E+02  0.7957747E-01  0.1325454E+00
        3   -1    0    0  501    0  0.00000000000E+00  0.00000000000E+00  0.37105615708E+02  0.37105615708E+02  0.00000000000E+00 0. -1.
       -4   -1    0    0    0  501  0.00000000000E+00  0.00000000000E+00 -0.43976337122E+02  0.43976337122E+02  0.00000000000E+00 0.  1.
      -24    2    1    2    0    0  0.00000000000E+00  0.00000000000E+00 -0.68707214139E+01  0.81081952831E+02  0.80790322825E+02 0.  0.
       11    1    3    3    0    0  0.47426562823E+01  0.11478508359E+02  0.35141915334E+02  0.37272015724E+02  0.00000000000E+00 0. -1.
      -12    1    3    3    0    0 -0.47426562823E+01 -0.11478508359E+02 -0.42012636748E+02  0.43809937107E+02  0.00000000000E+00 0.  1.
</event>
<event>
 6   2  0.6181100E+00  0.8870368E+02  0.7957747E-01  0.1305721E+00
       -2   -1    0    0    0  501  0.00000000000E+00  0.00000000000E+00  0.57074867509E+02  0.57074867509E+02  0.00000000000E+00 0.  1.
       21   -1    0    0  501  502  0.00000000000E+00  0.00000000000E+00 -0.71673864460E+02  0.71673864460E+02  0.00000000000E+00 0. -1.
      -24    2    1    2    0    0  0.25272823521E+01 -0.37316985474E+02 -0.20076567089E+02  0.90947298986E+02  0.80432568563E+02 0.  0.
       11    1    3    3    0    0  0.16600827250E+02 -0.56183034850E+02 -0.29501782804E+02  0.65593262299E+02  0.00000000000E+00 0. -1.
      -12    1    3    3    0    0 -0.14073544898E+02  0.18866049376E+02  0.94252157151E+01  0.25354036687E+02  0.00000000000E+00 0.  1.
       -1    1    1    2    0  502 -0.25272823521E+01  0.37316985474E+02  0.54775701389E+01  0.37801432984E+02  0.00000000000E+00 0.  1.
</event>
<event>
 4   3  0.6181100E+00  0.2164093E+03  0.7957747E-01  0.1143268E+00
       21   -1    0    0  503  502  0.00000000000E+00  0.00000000000E+00  0.82553392762E+03  0.82553392762E+03  0.00000000000E+00 0.  1.
       21   -1    0    0  501  503  0.00000000000E+00  0.00000000000E+00 -0.85527904646E+02  0.85527904646E+02  0.00000000000E+00 0.  1.
        6    1    1    2  501    0  0.12832628152E+03 -0.20889451193E+02  0.10567685099E+03  0.24083313837E+03  0.17300000000E+03 0.  1.
       -6    1    1    2    0  502 -0.12832628152E+03  0.20889451193E+02  0.63432917199E+03  0.67022869390E+03  0.17300000000E+03 0.  1.
</event>
<event>
 6   2  0.6181100E+00  0.8373264E+02  0.7957747E-01  0.1317830E+00
        1   -1    0    0  502    0  0.00000000000E+00  0.00000000000E+00  0.15263046551E+03  0.15263046551E+03  0.00000000000E+00 0. -1.
       21   -1    0    0  501  502  0.00000000000E+00  0.00000000000E+00 -0.18574977724E+02  0.18574977724E+02  0.00000000000E+00 0.  1.
      -24    2    1    2    0    0  0.76299344513E+01 -0.21179524919E+02  0.11023829185E+03  0.13843278698E+03  0.80649658063E+02 0.  0.
       11    1    3    3    0    0 -0.36156515976E+02 -0.33684166915E+01  0.52013475632E+02  0.63435333418E+02  0.00000000000E+00 0. -1.
      -12    1    3    3    0    0  0.43786450427E+02 -0.17811108227E+02  0.58224816218E+02  0.74997453563E+02  0.00000000000E+00 0.  1.
        2    1    1    2  501    0 -0.76299344513E+01  0.21179524919E+02  0.23817195932E+02  0.32772656248E+02  0.00000000000E+00 0. -1.
</event>
<event>
 5   1  0.6181100E+00  0.8090034E+02  0.7957747E-01  0.1325162E+00
       -2   -1    0    0    0  501  0.00000000000E+00  0.00000000000E+00  0.26031741325E+03  0.26031741325E+03  0.00000000000E+00 0.  1.
        1   -1    0    0  501    0  0.00000000000E+00  0.00000000000E+00 -0.62854667510E+01  0.62854667510E+01  0.00000000000E+00 0. -1.
      -24    2    1    2    0    0  0.00000000000E+00  0.00000000000E+00  0.25403194650E+03  0.26660288000E+03  0.80900344763E+02 0.  0.
       11    1    3    3    0    0 -0.30564722444E+02  0.11764478110E+02  0.48780396606E+02  0.58754849130E+02  0.00000000000E+00 0. -1.
      -12    1    3    3    0    0  0.30564722444E+02 -0.11764478110E+02  0.20525154989E+03  0.20784803087E+03  0.00000000000E+00 0.  1.
</event>
<event>
 4   3  0.6181100E+00  0.1960842E+03  0.7957747E-01  0.1159217E+00
       21   -1    0    0  501  502  0.00000000000E+00  0.00000000000E+00  0.16651561793E+03  0.16651561793E+03  0.00000000000E+00 0. -1.
       21   -1    0    0  502  503  0.00000000000E+00  0.00000000000E+00 -0.26107829155E+03  0.26107829155E+03  0.00000000000E+00 0. -1.
        6    1    1    2  501    0  0.46118902631E+02 -0.79956621371E+02 -0.11996542258E+03  0.22987108799E+03  0.17300000000E+03 0. -1.
       -6    1    1    2    0  503 -0.46118902631E+02  0.79956621371E+02  0.25402748959E+02  0.19772282148E+03  0.17300000000E+03 0. -1.
</event>
<event>
 5   1  0.6181100E+00  0.8123345E+02  0.7957747E-01  0.1324283E+00
        1   -1    0    0  501    0  0.00000000000E+00  0.00000000000E+00  0.18387589876E+01  0.18387589876E+01  0.00000000000E+00 0. -1.
       -2   -1    0    0    0  501  0.00000000000E+00  0.00000000000E+00 -0.89719113948E+03  0.89719113948E+03  0.00000000000E+00 0.  1.
      -24    2    1    2    0    0  0.00000000000E+00  0.00000000000E+00 -0.89535238050E+03  0.89902989847E+03  0.81233448070E+02 0.  0.
       11    1    3    3    0    0 -0.28263574290E+02  0.16004772501E+01 -0.12533120315E+03  0.12848852728E+03  0.00000000000E+00 0. -1.
      -12    1    3    3    0    0  0.28263574290E+02 -0.16004772501E+01 -0.77002117734E+03  0.77054137119E+03  0.00000000000E+00 0.  1.
</event>
<event>
 5   1  0.6181100E+00  0.7977662E+02  0.7957747E-01  0.1328166E+00
        1   -1    0    0  501    0  0.00000000000E+00  0.00000000000E+00  0.18180461559E+03  0.18180461559E+03  0.00000000000E+00 0. -1.
       -2   -1    0    0    0  501  0.00000000000E+00  0.00000000000E+00 -0.87515771576E+01  0.87515771576E+01  0.00000000000E+00 0.  1.
      -24    2    1    2    0    0  0.00000000000E+00  0.00000000000E+00  0.17305303843E+03  0.19055619274E+03  0.79776616146E+02 0.  0.
       11    1    3    3    0    0 -0.84758075351E+01 -0.38446231468E+02  0.71208560134E+02  0.81367137493E+02  0.00000000000E+00 0. -1.
      -12    1    3    3    0    0  0.84758075351E+01  0.38446231468E+02  0.10184447830E+03  0.10918905525E+03  0.00000000000E+00 0.  1.
</event>
<event>
 5   1  0.6181100E+00  0.8015860E+02  0.7957747E-01  0.1327139E+00
       -2   -1    0    0    0  501  0.00000000000E+00  0.00000000000E+00  0.87231136843E+02  0.87231136843E+02  0.00000000000E+00 0.  1.
        1   -1    0    0  501    0  0.00000000000E+00  0.00000000000E+00 -0.18414872944E+02  0.18414872944E+02  0.00000000000E+00 0. -1.
      -24    2    1    2    0    0  0.00000000000E+00  0.00000000000E+00  0.68816263899E+02  0.10564600979E+03  0.80158600331E+02 0.  0.
       11    1    3    3    0    0 -0.12751806759E+02 -0.34078223946E+02  0.56556815254E+02  0.67250332896E+02  0.00000000000E+00 0. -1.
      -12    1    3    3    0    0  0.12751806759E+02  0.34078223946E+02  0.12259448645E+02  0.38395676892E+02  0.00000000000E+00 0.  1.
</event>
<event>
 5   1  0.6181100E+00  0.7980930E+02  0.7957747E-01  0.1328078E+00
        1   -1    0    0  501    0  0.00000000000E+00  0.00000000000E+00  0.57596599227E+02  0.57596599227E+02  0.00000000000E+00 0. -1.
       -2   -1    0    0    0  501  0.00000000000E+00  0.00000000000E+00 -0.27647138538E+02  0.27647138538E+02  0.00000000000E+00 0.  1.
      -24    2    1    2    0    0  0.00000000000E+00  0.00000000000E+00  0.29949460689E+02  0.85243737765E+02  0.79809301668E+02 0.  0.
       11    1    3    3    0    0 -0.28397373497E+02  0.13619306759E+02  0.41148121172E+02  0.51817605253E+02  0.00000000000E+00 0. -1.
      -12    1    3    3    0    0  0.28397373497E+02 -0.13619306759E+02 -0.11198660483E+02  0.33426132513E+02  0.00000000000E+00 0.  1.
</event>
<event>
 6   2  0.6181100E+00  0.8333759E+02  0.7957747E-01  0.1318833E+00
        1   -1    0    0  502    0  0.00000000000E+00  0.00000000000E+00  0.16470478145E+02  0.16470478145E+02  0.00000000000E+00 0. -1.
       -2   -1    0    0    0  501  0.00000000000E+00  0.00000000000E+00 -0.17561592374E+03  0.17561592374E+03  0.00000000000E+00 0.  1.
      -24    2    1    2    0    0  0.23204140059E+02  0.66325563141E+01 -0.12665757953E+03  0.15161561785E+03  0.79766723662E+02 0.  0.
       11    1    3    3    0    0  0.29298545921E+02 -0.22270578940E+01 -0.53914055762E+01  0.29873597607E+02  0.00000000000E+00 0. -1.
      -12    1    3    3    0    0 -0.60944058613E+01  0.88596142081E+01 -0.12126617396E+03  0.12174202024E+03  0.00000000000E+00 0.  1.
       21    1    1    2  502  501 -0.23204140059E+02 -0.66325563141E+01 -0.32487866067E+02  0.40470784039E+02  0.00000000000E+00 0. -1.
</event>
<event>
 4   3  0.6181100E+00  0.1760105E+03  0.7957747E-01  0.1177201E+00
       21   -1    0    0  503  502  0.00000000000E+00  0.00000000000E+00  0.69871173225E+03  0.69871173225E+03  0.00000000000E+00 0. -1.
       21   -1    0    0  501  503  0.00000000000E+00  0.00000000000E+00 -0.21177422858E+03  0.21177422858E+03  0.00000000000E+00 0. -1.
        6    1    1    2  501    0  0.59076789818E+01 -0.31871412881E+02 -0.16132242378E+03  0.23875638640E+03  0.17300000000E+03 0. -1.
       -6    1    1    2    0  502 -0.59076789818E+01  0.31871412881E+02  0.64825992745E+03  0.67172957444E+03  0.17300000000E+03 0. -1.
</event>
<event>
 6   2  0.6181100E+00  0.9147067E+02  0.7957747E-01  0.1299362E+00
        1   -1    0    0  502    0  0.00000000000E+00  0.00000000000E+00  0.11974138890E+03  0.11974138890E+03  0.00000000000E+00 0. -1.
       -2   -1    0    0    0  501  0.00000000000E+00  0.00000000000E+00 -0.45640896892E+02  0.45640896892E+02  0.00000000000E+00 0.  1.
      -24    2    1    2    0    0 -0.40986925882E+02  0.14487770779E+02  0.16065142842E+02  0.92870732586E+02  0.80480187383E+02 0.  0.
       11    1    3    3    0    0 -0.14279886590E+02 -0.27387180610E+01  0.46589307428E+02  0.48805525346E+02  0.00000000000E+00 0. -1.
      -12    1    3    3    0    0 -0.26707039291E+02  0.17226488840E+02 -0.30524164587E+02  0.44065207241E+02  0.00000000000E+00 0.  1.
       21    1    1    2  502  501  0.40986925882E+02 -0.14487770779E+02  0.58035349162E+02  0.72511553202E+02  0.00000000000E+00 0. -1.
</event>
<event>
 5   1  0.6181100E+00  0.8112996E+02  0.7957747E-01  0.1324555E+00
        3   -1    0    0  501    0  0.00000000000E+00  0.00000000000E+00  0.69895382160E+02  0.69895382160E+02  0.00000000000E+00 0. -1.
       -4   -1    0    0    0  501  0.00000000000E+00  0.00000000000E+00 -0.23542576817E+02  0.23542576817E+02  0.00000000000E+00 0.  1.
      -24    2    1    2    0    0  0.00000000000E+00  0.00000000000E+00  0.46352805343E+02  0.93437958977E+02  0.81129955101E+02 0.  0.
       11    1    3    3    0    0 -0.31429764153E+02  0.17088533399E+02  0.45199905307E+02  0.57644422871E+02  0.00000000000E+00 0. -1.
      -12    1    3    3    0    0  0.31429764153E+02 -0.17088533399E+02  0.11529000369E+01  0.35793536106E+02  0.00000000000E+00 0.  1.
</event>
<event>
 5   1  0.6181100E+00  0.7710752E+02  0.7957747E-01  0.1335532E+00
        1   -1    0    0  501    0  0.00000000000E+00  0.00000000000E+00  0.25202101034E+02  0.25202101034E+02  0.00000000000E+00 0. -1.
       -2   -1    0    0    0  501  0.00000000000E+00  0.00000000000E+00 -0.58978904178E+02  0.58978904178E+02  0.00000000000E+00 0.  1.
      -24    2    1    2    0    0  0.00000000000E+00  0.00000000000E+00 -0.33776803144E+02  0.84181005212E+02  0.77107517195E+02 0.  0.
       11    1    3    3    0    0  0.80925202885E+01 -0.11242314800E+02  0.22391530324E+02  0.26329814981E+02  0.00000000000E+00 0. -1.
      -12    1    3    3    0    0 -0.80925202885E+01  0.11242314800E+02 -0.56168333468E+02  0.57851190232E+02  0.00000000000E+00 0.  1.
</event>
<event>
 5   1  0.6181100E+00  0.7810618E+02  0.7957747E-01  0.1332737E+00
        1   -1    0    0  501    0  0.00000000000E+00  0.00000000000E+00  0.63125618621E+02  0.63125618621E+02  0.00000000000E+00 0. -1.
       -2   -1    0    0    0  501  0.00000000000E+00  0.00000000000E+00 -0.24160455894E+02  0.24160455894E+02  0.00000000000E+00 0.  1.
      -24    2    1    2    0    0  0.00000000000E+00  0.00000000000E+00  0.38965162728E+02  0.87286074515E+02  0.78106177079E+02 0.  0.
       11    1    3    3    0    0  0.31846678373E+02 -0.21928468423E+02  0.13353958021E+02  0.40907173522E+02  0.00000000000E+00 0. -1.
      -12    1    3    3    0    0 -0.31846678373E+02  0.21928468423E+02  0.25611204707E+02  0.46378900993E+02  0.00000000000E+00 0.  1.
</event>
<event>
 5   1  0.6181100E+00  0.8190781E+02  0.7957747E-01  0.1322516E+00
        1   -1    0    0  501    0  0.00000000000E+00  0.00000000000E+00  0.17231839310E+02  0.17231839310E+02  0.00000000000E+00 0. -1.
       -2   -1    0    0    0  501  0.00000000000E+00  0.00000000000E+00 -0.97332759570E+02  0.97332759570E+02  0.00000000000E+00 0.  1.
      -24    2    1    2    0    0  0.00000000000E+00  0.00000000000E+00 -0.80100920260E+02  0.11456459888E+03  0.81907813364E+02 0.  0.
       11    1    3    3    0    0 -0.11178292634E+02 -0.57256410714E+01  0.14471737862E+02  0.19161638464E+02  0.00000000000E+00 0. -1.
      -12    1    3    3    0    0  0.11178292634E+02  0.57256410714E+01 -0.94572658122E+02  0.95402960416E+02  0.00000000000E+00 0.  1.
</event>
<event>
 5   1  0.6181100E+00  0.8067604E+02  0.7957747E-01  0.1325758E+00
       -4   -1    0    0    0  501  0.00000000000E+00  0.00000000000E+00  0.77497425975E+01  0.77497425975E+01  0.00000000000E+00 0.  1.
        3   -1    0    0  501    0  0.00000000000E+00  0.00000000000E+00 -0.20996257261E+03  0.20996257261E+03  0.00000000000E+00 0. -1.
      -24    2    1    2    0    0  0.00000000000E+00  0.00000000000E+00 -0.20221283001E+03  0.21771231521E+03  0.80676040875E+02 0.  0.
       11    1    3    3    0    0 -0.16455883872E+02  0.33489747476E+02 -0.14245725290E+03  0.14726312574E+03  0.00000000000E+00 0. -1.
      -12    1    3    3    0    0  0.16455883872E+02 -0.33489747476E+02 -0.59755577111E+02  0.70449189462E+02  0.00000000000E+00 0.  1.
</event>
<event>
 6   2  0.6181100E+00  0.1006522E+03  0.7957747E-01  0.1279951E+00
       21   -1    0    0  501  502  0.00000000000E+00  0.00000000000E+00  0.40113424308E+02  0.40113424308E+02  0.00000000000E+00 0.  1.
       -2   -1    0    0    0  501  0.00000000000E+00  0.00000000000E+00 -0.15904644029E+03  0.15904644029E+03  0.00000000000E+00 0.  1.
      -24    2    1    2    0    0 -0.23879084664E+02  0.53848740745E+02 -0.79680917566E+02  0.12837409771E+03  0.81614721549E+02 0.  0.
       11    1    3    3    0    0  0.13049007855E+02  0.30887346360E+02 -0.77949166776E+02  0.84855037400E+02  0.00000000000E+00 0. -1.
      -12    1    3    3    0    0 -0.36928092518E+02  0.22961394384E+02 -0.17317507908E+01  0.43519060306E+02  0.00000000000E+00 0.  1.
       -1    1    1    2    0  502  0.23879084664E+02 -0.53848740745E+02 -0.39252098411E+02  0.70785766887E+02  0.00000000000E+00 0.  1.
</event>
<event>
 6   2  0.6181100E+00  0.1013764E+03  0.7957747E-01  0.1278520E+00
       -2   -1    0    0    0  501  0.00000000000E+00  0.00000000000E+00  0.49377051646E+02  0.49377051646E+02  0.00000000000E+00 0.  1.
        1   -1    0    0  502    0  0.00000000000E+00  0.00000000000E+00 -0.12139363686E+03  0.12139363686E+03  0.00000000000E+00 0. -1.
      -24    2    1    2    0    0  0.35647677719E+02  0.45375451138E+01 -0.13737145111E+02  0.10230289037E+03  0.94793596725E+02 0.  0.
       11    1    3    3    0    0  0.23762939473E+02  0.49399881781E+02 -0.10194617465E+02  0.55758011421E+02  0.00000000000E+00 0. -1.
      -12    1    3    3    0    0  0.11884738246E+02 -0.44862336667E+02 -0.35425276459E+01  0.46544878951E+02  0.00000000000E+00 0.  1.
       21    1    1    2  502  501 -0.35647677719E+02 -0.45375451138E+01 -0.58279440100E+02  0.68467798131E+02  0.00000000000E+00 0. -1.
</event>
<event>
 6   2  0.6181100E+00  0.8294204E+02  0.7957747E-01  0.1319843E+00
       21   -1    0    0  501  502  0.00000000000E+00  0.00000000000E+00  0.15223416905E+02  0.15223416905E+02  0.00000000000E+00 0.  1.
       -4   -1    0    0    0  501  0.00000000000E+00  0.00000000000E+00 -0.17946246402E+03  0.17946246402E+03  0.00000000000E+00 0.  1.
      -24    2    1    2    0    0  0.18146411978E+02 -0.11692224502E+02 -0.12930187706E+03  0.15361756914E+03  0.80083592300E+02 0.  0.
       11    1    3    3    0    0 -0.53558202564E+01  0.95175010023E+01  0.74689300222E+01  0.13230742671E+02  0.00000000000E+00 0. -1.
      -12    1    3    3    0    0  0.23502232235E+02 -0.21209725504E+02 -0.13677080708E+03  0.14038682647E+03  0.00000000000E+00 0.  1.
       -3    1    1    2    0  502 -0.18146411978E+02  0.11692224502E+02 -0.34937170051E+02  0.41068311782E+02  0.00000000000E+00 0.  1.
</event>
<event>
 5   1  0.6181100E+00  0.8207571E+02  0.7957747E-01  0.1322079E+00
        3   -1    0    0  501    0  0.00000000000E+00  0.00000000000E+00  0.83228308297E+01  0.83228308297E+01  0.00000000000E+00 0. -1.
       -4   -1    0    0    0  501  0.00000000000E+00  0.00000000000E+00 -0.20234769030E+03  0.20234769030E+03  0.00000000000E+00 0.  1.
      -24    2    1    2    0    0  0.00000000000E+00  0.00000000000E+00 -0.19402485947E+03  0.21067052113E+03  0.82075711271E+02 0.  0.
       11    1    3    3    0    0  0.97912393155E+01  0.15400339959E+02 -0.26655549884E+01  0.18442993835E+02  0.00000000000E+00 0. -1.
      -12    1    3    3    0    0 -0.97912393155E+01 -0.15400339959E+02 -0.19135930448E+03  0.19222752730E+03  0.00000000000E+00 0.  1.
</event>
<event>
 5   1  0.6181100E+00  0.8061203E+02  0.7957747E-01  0.1325928E+00
       -2   -1    0    0    0  501  0.00000000000E+00  0.00000000000E+00  0.15404339282E+02  0.15404339282E+02  0.00000000000E+00 0.  1.
        1   -1    0    0  501    0  0.00000000000E+00  0.00000000000E+00 -0.10546214665E+03  0.10546214665E+03  0.00000000000E+00 0. -1.
      -24    2    1    2    0    0  0.00000000000E+00  0.00000000000E+00 -0.90057807366E+02  0.12086648593E+03  0.80612026111E+02 0.  0.
       11    1    3    3    0    0  0.44696469329E+01  0.39958880482E+02 -0.49239094920E+02  0.63570263029E+02  0.00000000000E+00 0. -1.
      -12    1    3    3    0    0 -0.44696469329E+01 -0.39958880482E+02 -0.40818712446E+02  0.57296222902E+02  0.00000000000E+00 0.  1.
</event>
<event>
 5   1  0.6181100E+00  0.8451569E+02  0.7957747E-01  0.1315860E+00
       -2   -1    0    0    0  501  0.00000000000E+00  0.00000000000E+00  0.14260038520E+02  0.14260038520E+02  0.00000000000E+00 0.  1.
        1   -1    0    0  501    0  0.00000000000E+00  0.00000000000E+00 -0.12522584548E+03  0.12522584548E+03  0.00000000000E+00 0. -1.
      -24    2    1    2    0    0  0.00000000000E+00  0.00000000000E+00 -0.11096580696E+03  0.13948588400E+03  0.84515688017E+02 0.  0.
       11    1    3    3    0    0  0.27755901405E+02  0.13216030086E+02 -0.10333557457E+03  0.10781138384E+03  0.00000000000E+00 0. -1.
      -12    1    3    3    0    0 -0.27755901405E+02 -0.13216030086E+02 -0.76302323924E+01  0.31674500160E+02  0.00000000000E+00 0.  1.
</event>
<event>
 5   1  0.6181100E+00  0.8326630E+02  0.7957747E-01  0.1319015E+00
        3   -1    0    0  501    0  0.00000000000E+00  0.00000000000E+00  0.12685572903E+02  0.12685572903E+02  0.00000000000E+00 0. -1.
       -4   -1    0    0    0  501  0.00000000000E+00  0.00000000000E+00 -0.13663703973E+03  0.13663703973E+03  0.00000000000E+00 0.  1.
      -24    2    1    2    0    0  0.00000000000E+00  0.00000000000E+00 -0.12395146683E+03  0.14932261263E+03  0.83266298796E+02 0.  0.
       11    1    3    3    0    0  0.31614994475E+02  0.24428882963E+02 -0.82969069982E+02  0.92087701525E+02  0.00000000000E+00 0. -1.
      -12    1    3    3    0    0 -0.31614994475E+02 -0.24428882963E+02 -0.40982396846E+02  0.57234911110E+02  0.00000000000E+00 0.  1.
</event>
<event>
 5   1  0.6181100E+00  0.8115505E+02  0.7957747E-01  0.1324489E+00
       -4   -1    0    0    0  501  0.00000000000E+00  0.00000000000E+00  0.41018883626E+02  0.41018883626E+02  0.00000000000E+00 0.  1.
        3   -1    0    0  501    0  0.00000000000E+00  0.00000000000E+00 -0.40140917194E+02  0.40140917194E+02  0.00000000000E+00 0. -1.
      -24    2    1    2    0    0  0.00000000000E+00  0.00000000000E+00  0.87796643246E+00  0.81159800820E+02  0.81155051870E+02 0.  0.
       11    1    3    3    0    0  0.66453652707E-01 -0.26024281522E+02 -0.30695907290E+02  0.40243090949E+02  0.00000000000E+00 0. -1.
      -12    1    3    3    0    0 -0.66453652707E-01  0.26024281522E+02  0.31573873722E+02  0.40916709871E+02  0.00000000000E+00 0.  1.
</event>
<event>
 5   1  0.6181100E+00  0.8177322E+02  0.7957747E-01  0.1322867E+00
        3   -1    0    0  501    0  0.00000000000E+00  0.00000000000E+00  0.55185986243E+02  0.55185986243E+02  0.00000000000E+00 0. -1.
       -4   -1    0    0    0  501  0.00000000000E+00  0.00000000000E+00 -0.30292383060E+02  0.30292383060E+02  0.00000000000E+00 0.  1.
      -24    2    1    2    0    0  0.00000000000E+00  0.00000000000E+00  0.24893603183E+02  0.85478369303E+02  0.81773223853E+02 0.  0.
       11    1    3    3    0    0 -0.28986595241E+02 -0.15129674872E+02  0.38106666404E+02  0.50212028338E+02  0.00000000000E+00 0. -1.
      -12    1    3    3    0    0  0.28986595241E+02  0.15129674872E+02 -0.13213063221E+02  0.35266340965E+02  0.00000000000E+00 0.  1.
</event>
<event>
 5   1  0.6181100E+00  0.8394504E+02  0.7957747E-01  0.1317293E+00
       -2   -1    0    0    0  501  0.00000000000E+00  0.00000000000E+00  0.66881001634E+01  0.66881001634E+01  0.00000000000E+00 0.  1.
        1   -1    0    0  501    0  0.00000000000E+00  0.00000000000E+00 -0.26340697909E+03  0.26340697909E+03  0.00000000000E+00 0. -1.
      -24    2    1    2    0    0  0.00000000000E+00  0.00000000000E+00 -0.25671887893E+03  0.27009507925E+03  0.83945035824E+02 0.  0.
       11    1    3    3    0    0 -0.29057286995E+02 -0.28506299979E+02 -0.95427782604E+02  0.10374679156E+03  0.00000000000E+00 0. -1.
      -12    1    3    3    0    0  0.29057286995E+02  0.28506299979E+02 -0.16129109632E+03  0.16634828769E+03  0.00000000000E+00 0.  1.
</event>
<event>
 5   1  0.6181100E+00  0.8004097E+02  0.7957747E-01  0.1327455E+00
       -4   -1    0    0    0  501  0.00000000000E+00  0.00000000000E+00  0.58254552055E+02  0.58254552055E+02  0.00000000000E+00 0.  1.
        3   -1    0    0  501    0  0.00000000000E+00  0.00000000000E+00 -0.27493802825E+02  0.27493802825E+02  0.00000000000E+00 0. -1.
      -24    2    1    2    0    0  0.00000000000E+00  0.00000000000E+00  0.30760749230E+02  0.85748354880E+02  0.80040968706E+02 0.  0.
       11    1    3    3    0    0  0.19539194842E+02 -0.41804378664E+01 -0.21767576825E+02  0.29547988031E+02  0.00000000000E+00 0. -1.
      -12    1    3    3    0    0 -0.19539194842E+02  0.41804378664E+01  0.52528326055E+02  0.56200366849E+02  0.00000000000E+00 0.  1.
</event>
<event>
 5   1  0.6181100E+00  0.7838371E+02  0.7957747E-01  0.1331969E+00
       -2   -1    0    0    0  501  0.00000000000E+00  0.00000000000E+00  0.53525982257E+02  0.53525982257E+02  0.00000000000E+00 0.  1.
        1   -1    0    0  501    0  0.00000000000E+00  0.00000000000E+00 -0.28696373014E+02  0.28696373014E+02  0.00000000000E+00 0. -1.
      -24    2    1    2    0    0  0.00000000000E+00  0.00000000000E+00  0.24829609243E+02  0.82222355271E+02  0.78383711389E+02 0.  0.
       11    1    3    3    0    0  0.27404405305E+02  0.20076845930E+02 -0.80850370583E+01  0.34920609915E+02  0.00000000000E+00 0. -1.
      -12    1    3    3    0    0 -0.27404405305E+02 -0.20076845930E+02  0.32914646302E+02  0.47301745356E+02  0.00000000000E+00 0.  1.
</event>
<event>
 5   1  0.6181100E+00  0.8009200E+02  0.7957747E-01  0.1327318E+00
       -2   -1    0    0    0  501  0.00000000000E+00  0.00000000000E+00  0.36846790597E+01  0.36846790597E+01  0.00000000000E+00 0.  1.
        1   -1    0    0  501    0  0.00000000000E+00  0.00000000000E+00 -0.43522977643E+03  0.43522977643E+03  0.00000000000E+00 0. -1.
      -24    2    1    2    0    0  0.00000000000E+00  0.00000000000E+00 -0.43154509737E+03  0.43891445548E+03  0.80091998186E+02 0.  0.
       11    1    3    3    0    0 -0.31428380137E+02  0.24444401084E+02 -0.23928620990E+03  0.24257609543E+03  0.00000000000E+00 0. -1.
      -12    1    3    3    0    0  0.31428380137E+02 -0.24444401084E+02 -0.19225888746E+03  0.19633836006E+03  0.00000000000E+00 0.  1.
</event>
<event>
 5   1  0.6181100E+00  0.8219473E+02  0.7957747E-01  0.1321770E+00
        3   -1    0    0  501    0  0.00000000000E+00  0.00000000000E+00  0.67434728279E+01  0.67434728279E+01  0.00000000000E+00 0. -1.
       -4   -1    0    0    0  501  0.00000000000E+00  0.00000000000E+00 -0.25046342859E+03  0.25046342859E+03  0.00000000000E+00 0.  1.
      -24    2    1    2    0    0  0.00000000000E+00  0.00000000000E+00 -0.24371995577E+03  0.25720690142E+03  0.82194727936E+02 0.  0.
       11    1    3    3    0    0  0.12207587281E+02  0.96400114530E+01 -0.28238830257E+01  0.15809153152E+02  0.00000000000E+00 0. -1.
      -12    1    3    3    0    0 -0.12207587281E+02 -0.96400114530E+01 -0.24089607274E+03  0.24139774827E+03  0.00000000000E+00 0.  1.
</event>
<event>
 6   2  0.6181100E+00  0.8256010E+02  0.7957747E-01  0.1320825E+00
        1   -1    0    0  502    0  0.00000000000E+00  0.00000000000E+00  0.26887114741E+03  0.26887114741E+03  0.00000000000E+00 0. -1.
       21   -1    0    0  501  502  0.00000000000E+00  0.00000000000E+00 -0.22686942769E+02  0.22686942769E+02  0.00000000000E+00 0. -1.
      -24    2    1    2    0    0  0.18502464294E+02 -0.13693094967E+02  0.25413194882E+03  0.26720632079E+03  0.79286369720E+02 0.  0.
       11    1    3    3    0    0  0.39526640885E+02  0.18792915843E+02  0.14134529387E+03  0.14796628374E+03  0.00000000000E+00 0. -1.
      -12    1    3    3    0    0 -0.21024176591E+02 -0.32486010811E+02  0.11278665495E+03  0.11924003705E+03  0.00000000000E+00 0.  1.
        2    1    1    2  501    0 -0.18502464294E+02  0.13693094967E+02 -0.79477441815E+01  0.24351769388E+02  0.00000000000E+00 0. -1.
</event>
<event>
 6   2  0.6181100E+00  0.8575214E+02  0.7957747E-01  0.1312799E+00
       -4   -1    0    0    0  501  0.00000000000E+00  0.00000000000E+00  0.10093016169E+03  0.10093016169E+03  0.00000000000E+00 0.  1.
       21   -1    0    0  501  502  0.00000000000E+00  0.00000000000E+00 -0.34412495017E+02  0.34412495017E+02  0.00000000000E+00 0. -1.
      -24    2    1    2    0    0 -0.24983226529E+02 -0.13843972905E+02  0.63330406858E+02  0.10660286167E+03  0.80855503773E+02 0.  0.
       11    1    3    3    0    0 -0.38146245744E+02  0.12922793353E+02  0.43513691840E+01  0.40510110666E+02  0.00000000000E+00 0. -1.
      -12    1    3    3    0    0  0.13163019215E+02 -0.26766766258E+02  0.58979037674E+02  0.66092751007E+02  0.00000000000E+00 0.  1.
       -3    1    1    2    0  502  0.24983226529E+02  0.13843972905E+02  0.31872598184E+01  0.28739795037E+02  0.00000000000E+00 0.  1.
</event>
<event>
 5   1  0.6181100E+00  0.8075141E+02  0.7957747E-01  0.1325557E+00
        1   -1    0    0  501    0  0.00000000000E+00  0.00000000000E+00  0.70115309537E+01  0.70115309537E+01  0.00000000000E+00 0. -1.
       -2   -1    0    0    0  501  0.00000000000E+00  0.00000000000E+00 -0.23250236333E+03  0.23250236333E+03  0.00000000000E+00 0.  1.
      -24    2    1    2    0    0  0.00000000000E+00  0.00000000000E+00 -0.22549083237E+03  0.23951389428E+03  0.80751409084E+02 0.  0.
       11    1    3    3    0    0  0.14249791820E+02 -0.26871322188E+02 -0.33986878676E+02  0.45609565281E+02  0.00000000000E+00 0. -1.
      -12    1    3    3    0    0 -0.14249791820E+02  0.26871322188E+02 -0.19150395370E+03  0.19390432900E+03  0.00000000000E+00 0.  1.
</event>
<event>
 5   1  0.6181100E+00  0.7932724E+02  0.7957747E-01  0.1329383E+00
       -2   -1    0    0    0  501  0.00000000000E+00  0.00000000000E+00  0.13353966792E+02  0.13353966792E+02  0.00000000000E+00 0.  1.
        1   -1    0    0  501    0  0.00000000000E+00  0.00000000000E+00 -0.11780788724E+03  0.11780788724E+03  0.00000000000E+00 0. -1.
      -24    2    1    2    0    0  0.00000000000E+00  0.00000000000E+00 -0.10445392045E+03  0.13116185404E+03  0.79327236536E+02 0.  0.
       11    1    3    3    0    0 -0.32070702315E+02 -0.23278720828E+02 -0.49473209310E+02  0.63387910754E+02  0.00000000000E+00 0. -1.
      -12    1    3    3    0    0  0.32070702315E+02  0.23278720828E+02 -0.54980711142E+02  0.67773943282E+02  0.00000000000E+00 0.  1.
</event>
<event>
 6   2  0.6181100E+00  0.8215493E+02  0.7957747E-01  0.1321873E+00
       -2   -1    0    0    0  501  0.00000000000E+00  0.00000000000E+00  0.15847275578E+03  0.15847275578E+03  0.00000000000E+00 0.  1.
        1   -1    0    0  502    0  0.00000000000E+00  0.00000000000E+00 -0.51048281817E+02  0.51048281817E+02  0.00000000000E+00 0. -1.
      -24    2    1    2    0    0 -0.28374135917E+02  0.83251086340E+00 -0.15290459711E+02  0.83565729610E+02  0.77095060437E+02 0.  0.
       11    1    3    3    0    0 -0.41116330214E+02 -0.17647710471E+02 -0.32482583390E+02  0.55291161308E+02  0.00000000000E+00 0. -1.
      -12    1    3    3    0    0  0.12742194297E+02  0.18480221334E+02  0.17192123679E+02  0.28274568302E+02  0.00000000000E+00 0.  1.
       21    1    1    2  502  501  0.28374135917E+02 -0.83251086340E+00  0.12271493368E+03  0.12595530799E+03  0.00000000000E+00 0.  1.
</event>
<event>
 5   1  0.6181100E+00  0.7678463E+02  0.7957747E-01  0.1336446E+00
        3   -1    0    0  501    0  0.00000000000E+00  0.00000000000E+00  0.13133720310E+02  0.13133720310E+02  0.00000000000E+00 0. -1.
       -4   -1    0    0    0  501  0.00000000000E+00  0.00000000000E+00 -0.11222789321E+03  0.11222789321E+03  0.00000000000E+00 0.  1.
      -24    2    1    2    0    0  0.00000000000E+00  0.00000000000E+00 -0.99094172901E+02  0.12536161352E+03  0.76784627638E+02 0.  0.
       11    1    3    3    0    0  0.12159265717E+02  0.10125526196E+02  0.75625332732E+01  0.17537557784E+02  0.00000000000E+00 0. -1.
      -12    1    3    3    0    0 -0.12159265717E+02 -0.10125526196E+02 -0.10665670617E+03  0.10782405574E+03  0.00000000000E+00 0.  1.
</event>
<event>
 5   1  0.6181100E+00  0.7809033E+02  0.7957747E-01  0.1332781E+00
       -2   -1    0    0    0  501  0.00000000000E+00  0.00000000000E+00  0.83105095024E+01  0.83105095024E+01  0.00000000000E+00 0.  1.
        1   -1    0    0  501    0  0.00000000000E+00  0.00000000000E+00 -0.18344544184E+03  0.18344544184E+03  0.00000000000E+00 0. -1.
      -24    2    1    2    0    0  0.00000000000E+00  0.00000000000E+00 -0.17513493234E+03  0.19175595135E+03  0.78090334552E+02 0.  0.
       11    1    3    3    0    0 -0.28244879846E+02  0.13123246245E+02 -0.14539237752E+03  0.14869074036E+03  0.00000000000E+00 0. -1.
      -12    1    3    3    0    0  0.28244879846E+02 -0.13123246245E+02 -0.29742554824E+02  0.43065210983E+02  0.00000000000E+00 0.  1.
</event>
<event>
 6   2  0.6181100E+00  0.8641678E+02  0.7957747E-01  0.1311177E+00
       -2   -1    0    0    0  501  0.00000000000E+00  0.00000000000E+00  0.17138365379E+02  0.17138365379E+02  0.00000000000E+00 0.  1.
        1   -1    0    0  502    0  0.00000000000E+00  0.00000000000E+00 -0.25759879949E+03  0.25759879949E+03  0.00000000000E+00 0. -1.
      -24    2    1    2    0    0 -0.25527677951E+02 -0.11599279584E+02 -0.22842306534E+03  0.24422317012E+03  0.81741387412E+02 0.  0.
       11    1    3    3    0    0 -0.82743093006E+01 -0.44324258659E+02 -0.86364028684E+02  0.97426123553E+02  0.00000000000E+00 0. -1.
      -12    1    3    3    0    0 -0.17253368650E+02  0.32724979075E+02 -0.14205903666E+03  0.14679704657E+03  0.00000000000E+00 0.  1.
       21    1    1    2  502  501  0.25527677951E+02  0.11599279584E+02 -0.12037368768E+02  0.30513994745E+02  0.00000000000E+00 0.  1.
</event>
<event>
 5   1  0.6181100E+00  0.8123464E+02  0.7957747E-01  0.1324279E+00
       -2   -1    0    0    0  501  0.00000000000E+00  0.00000000000E+00  0.17155986292E+02  0.17155986292E+02  0.00000000000E+00 0.  1.
        1   -1    0    0  501    0  0.00000000000E+00  0.00000000000E+00 -0.96162730376E+02  0.96162730376E+02  0.00000000000E+00 0. -1.
      -24    2    1    2    0    0  0.00000000000E+00  0.00000000000E+00 -0.79006744084E+02  0.11331871667E+03  0.81234635079E+02 0.  0.
       11    1    3    3    0    0  0.65658190547E+01  0.29703487803E+02 -0.77047103843E+02  0.82835157863E+02  0.00000000000E+00 0. -1.
      -12    1    3    3    0    0 -0.65658190547E+01 -0.29703487803E+02 -0.19596402409E+01  0.30483558805E+02  0.00000000000E+00 0.  1.
</event>
<event>
 5   1  0.6181100E+00  0.7893992E+02  0.7957747E-01  0.1330440E+00
       -2   -1    0    0    0  501  0.00000000000E+00  0.00000000000E+00  0.17549868771E+02  0.17549868771E+02  0.00000000000E+00 0.  1.
        1   -1    0    0  501    0  0.00000000000E+00  0.00000000000E+00 -0.88768618031E+02  0.88768618031E+02  0.00000000000E+00 0. -1.
      -24    2    1    2    0    0  0.00000000000E+00  0.00000000000E+00 -0.71218749261E+02  0.10631848680E+03  0.78939916326E+02 0.  0.
       11    1    3    3    0    0 -0.21938577523E+02  0.75017683186E+00 -0.79788896874E+02  0.82753441096E+02  0.00000000000E+00 0. -1.
      -12    1    3    3    0    0  0.21938577523E+02 -0.75017683186E+00  0.85701476130E+01  0.23565045706E+02  0.00000000000E+00 0.  1.
</event>
<event>
 5   1  0.6181100E+00  0.8089242E+02  0.7957747E-01  0.1325183E+00
        1   -1    0    0  501    0  0.00000000000E+00  0.00000000000E+00  0.72183464579E+01  0.72183464579E+01  0.00000000000E+00 0. -1.
       -2   -1    0    0    0  501  0.00000000000E+00  0.00000000000E+00 -0.22663028049E+03  0.22663028049E+03  0.00000000000E+00 0.  1.
      -24    2    1    2    0    0  0.00000000000E+00  0.00000000000E+00 -0.21941193403E+03  0.23384862695E+03  0.80892419482E+02 0.  0.
       11    1    3    3    0    0  0.14405382307E+02  0.37514744840E+02 -0.96450575805E+02  0.10448724656E+03  0.00000000000E+00 0. -1.
      -12    1    3    3    0    0 -0.14405382307E+02 -0.37514744840E+02 -0.12296135823E+03  0.12936138039E+03  0.00000000000E+00 0.  1.
</event>
<event>
 5   1  0.6181100E+00  0.8023196E+02  0.7957747E-01  0.1326942E+00
        1   -1    0    0  501    0  0.00000000000E+00  0.00000000000E+00  0.11768355871E+03  0.11768355871E+03  0.00000000000E+00 0. -1.
       -2   -1    0    0    0  501  0.00000000000E+00  0.00000000000E+00 -0.13674739108E+02  0.13674739108E+02  0.00000000000E+00 0.  1.
      -24    2    1    2    0    0  0.00000000000E+00  0.00000000000E+00  0.10400881961E+03  0.13135829782E+03  0.80231962777E+02 0.  0.
       11    1    3    3    0    0 -0.36750376794E+02 -0.11039099575E+02  0.71156523247E+02  0.80843693103E+02  0.00000000000E+00 0. -1.
      -12    1    3    3    0    0  0.36750376794E+02  0.11039099575E+02  0.32852296358E+02  0.50514604719E+02  0.00000000000E+00 0.  1.
</event>
<event>
 5   1  0.6181100E+00  0.7922936E+02  0.7957747E-01  0.1329650E+00
       -2   -1    0    0    0  501  0.00000000000E+00  0.00000000000E+00  0.44960121034E+03  0.44960121034E+03  0.00000000000E+00 0.  1.
        1   -1    0    0  501    0  0.00000000000E+00  0.00000000000E+00 -0.34904773049E+01  0.34904773049E+01  0.00000000000E+00 0. -1.
      -24    2    1    2    0    0  0.00000000000E+00  0.00000000000E+00  0.44611073303E+03  0.45309168764E+03  0.79229358723E+02 0.  0.
       11    1    3    3    0    0 -0.33984935125E+02  0.62354358604E+01  0.11224370633E+03  0.11744150070E+03  0.00000000000E+00 0. -1.
      -12    1    3    3    0    0  0.33984935125E+02 -0.62354358604E+01  0.33386702670E+03  0.33565018694E+03  0.00000000000E+00 0.  1.
</event>
<event>
 5   1  0.6181100E+00  0.7993406E+02  0.7957747E-01  0.1327742E+00
        3   -1    0    0  501    0  0.00000000000E+00  0.00000000000E+00  0.11058611528E+02  0.11058611528E+02  0.00000000000E+00 0. -1.
       -4   -1    0    0    0  501  0.00000000000E+00  0.00000000000E+00 -0.14444522032E+03  0.14444522032E+03  0.00000000000E+00 0.  1.
      -24    2    1    2    0    0  0.00000000000E+00  0.00000000000E+00 -0.13338660879E+03  0.15550383184E+03  0.79934062292E+02 0.  0.
       11    1    3    3    0    0 -0.36964664283E+02  0.12068044997E+02 -0.48721811173E+02  0.62336498134E+02  0.00000000000E+00 0. -1.
      -12    1    3    3    0    0  0.36964664283E+02 -0.12068044997E+02 -0.84664797615E+02  0.93167333711E+02  0.00000000000E+00 0.  1.
</event>
<event>
 4   3  0.6181100E+00  0.2101091E+03  0.7957747E-01  0.1148000E+00
       21   -1    0    0  503  502  0.00000000000E+00  0.00000000000E+00  0.57918609384E+02  0.57918609384E+02  0.00000000000E+00 0. -1.
       21   -1    0    0  501  503  0.00000000000E+00  0.00000000000E+00 -0.90900225165E+03  0.90900225165E+03  0.00000000000E+00 0. -1.
        6    1    1    2  501    0 -0.25305133334E+02  0.11651809331E+03 -0.23125721855E+03  0.31245114334E+03  0.17300000000E+03 0. -1.
       -6    1    1    2    0  502  0.25305133334E+02 -0.11651809331E+03 -0.61982642371E+03  0.65446971769E+03  0.17300000000E+03 0. -1.
</event>
<event>
 4   3  0.6181100E+00  0.2984772E+03  0.7957747E-01  0.1094191E+00
       21   -1    0    0  501  502  0.00000000000E+00  0.00000000000E+00  0.15766628079E+04  0.15766628079E+04  0.00000000000E+00 0.  1.
       21   -1    0    0  502  503  0.00000000000E+00  0.00000000000E+00 -0.89106850011E+02  0.89106850011E+02  0.00000000000E+00 0.  1.
        6    1    1    2  501    0 -0.24253929094E+03  0.18285499718E+02  0.23998357772E+03  0.38298927495E+03  0.17300000000E+03 0.  1.
       -6    1    1    2    0  503  0.24253929094E+03 -0.18285499718E+02  0.12475723801E+04  0.12827803829E+04  0.17300000000E+03 0.  1.
</event>
<event>
 5   1  0.6181100E+00  0.8102064E+02  0.7957747E-01  0.1324844E+00
        1   -1    0    0  501    0  0.00000000000E+00  0.00000000000E+00  0.11061596548E+04  0.11061596548E+04  0.00000000000E+00 0. -1.
       -2   -1    0    0    0  501  0.00000000000E+00  0.00000000000E+00 -0.14835886187E+01  0.14835886187E+01  0.00000000000E+00 0.  1.
      -24    2    1    2    0    0  0.00000000000E+00  0.00000000000E+00  0.11046760662E+04  0.11076432434E+04  0.81020636244E+02 0.  0.
       11    1    3    3    0    0  0.43952881468E+01  0.25491828320E+02  0.12612900784E+03  0.12875433386E+03  0.00000000000E+00 0. -1.
      -12    1    3    3    0    0 -0.43952881468E+01 -0.25491828320E+02  0.97854705832E+03  0.97888890953E+03  0.00000000000E+00 0.  1.
</event>
<event>
 5   1  0.6181100E+00  0.7957280E+02  0.7957747E-01  0.1328717E+00
        1   -1    0    0  501    0  0.00000000000E+00  0.00000000000E+00  0.20929171184E+03  0.20929171184E+03  0.00000000000E+00 0. -1.
       -2   -1    0    0    0  501  0.00000000000E+00  0.00000000000E+00 -0.75634035616E+01  0.75634035616E+01  0.00000000000E+00 0.  1.
      -24    2    1    2    0    0  0.00000000000E+00  0.00000000000E+00  0.20172830828E+03  0.21685511540E+03  0.79572801351E+02 0.  0.
       11    1    3    3    0    0  0.39069349967E+02 -0.74356138496E+01  0.10391742058E+03  0.11126784244E+03  0.00000000000E+00 0. -1.
      -12    1    3    3    0    0 -0.39069349967E+02  0.74356138496E+01  0.97810887692E+02  0.10558727296E+03  0.00000000000E+00 0.  1.
</event>
<event>
 5   1  0.6181100E+00  0.8004669E+02  0.7957747E-01  0.1327439E+00
        1   -1    0    0  501    0  0.00000000000E+00  0.00000000000E+00  0.27330264373E+01  0.27330264373E+01  0.00000000000E+00 0. -1.
       -2   -1    0    0    0  501  0.00000000000E+00  0.00000000000E+00 -0.58611517512E+03  0.58611517512E+03  0.00000000000E+00 0.  1.
      -24    2    1    2    0    0  0.00000000000E+00  0.00000000000E+00 -0.58338214868E+03  0.58884820155E+03  0.80046693096E+02 0.  0.
       11    1    3    3    0    0 -0.26055295314E+02 -0.49330168159E+01 -0.71166748100E+02  0.75946817603E+02  0.00000000000E+00 0. -1.
      -12    1    3    3    0    0  0.26055295314E+02  0.49330168159E+01 -0.51221540058E+03  0.51290138395E+03  0.00000000000E+00 0.  1.
</event>
<event>
 4   3  0.6181100E+00  0.4252841E+03  0.7957747E-01  0.1044802E+00
       21   -1    0    0  501  502  0.00000000000E+00  0.00000000000E+00  0.12155648444E+04  0.12155648444E+04  0.00000000000E+00 0.  1.
       21   -1    0    0  502  503  0.00000000000E+00  0.00000000000E+00 -0.26603764497E+03  0.26603764497E+03  0.00000000000E+00 0.  1.
        6    1    1    2  501    0  0.62080191791E+02  0.38351483452E+03  0.96655182766E+03  0.10559777526E+04  0.17300000000E+03 0.  1.
       -6    1    1    2    0  503 -0.62080191791E+02 -0.38351483452E+03 -0.17024628281E+02  0.42562473669E+03  0.17300000000E+03 0.  1.
</event>
<event>
 5   1  0.6181100E+00  0.8123449E+02  0.7957747E-01  0.1324280E+00
        1   -1    0    0  501    0  0.00000000000E+00  0.00000000000E+00  0.12075530916E+03  0.12075530916E+03  0.00000000000E+00 0. -1.
       -2   -1    0    0    0  501  0.00000000000E+00  0.00000000000E+00 -0.13662014186E+02  0.13662014186E+02  0.00000000000E+00 0.  1.
      -24    2    1    2    0    0  0.00000000000E+00  0.00000000000E+00  0.10709329497E+03  0.13441732334E+03  0.81234493826E+02 0.  0.
       11    1    3    3    0    0 -0.39062887655E+02  0.10523232884E+02  0.59538593002E+02  0.71982578997E+02  0.00000000000E+00 0. -1.
      -12    1    3    3    0    0  0.39062887655E+02 -0.10523232884E+02  0.47554701969E+02  0.62434744347E+02  0.00000000000E+00 0.  1.
</event>
<event>
 4   3  0.6181100E+00  0.1953691E+03  0.7957747E-01  0.1159817E+00
       21   -1    0    0  501  502  0.00000000000E+00  0.00000000000E+00  0.73507691366E+02  0.73507691366E+02  0.00000000000E+00 0. -1.
       21   -1    0    0  502  503  0.00000000000E+00  0.00000000000E+00 -0.59155508143E+03  0.59155508143E+03  0.00000000000E+00 0. -1.
        6    1    1    2  501    0 -0.42680580745E+02  0.80115351158E+02 -0.14276914758E+03  0.24197547596E+03  0.17300000000E+03 0. -1.
       -6    1    1    2    0  503  0.42680580745E+02 -0.80115351158E+02 -0.37527824248E+03  0.42308729684E+03  0.17300000000E+03 0. -1.
</event>
<event>
 5   1  0.6181100E+00  0.6899330E+02  0.7957747E-01  0.1360178E+00
       -2   -1    0    0    0  501  0.00000000000E+00  0.00000000000E+00  0.15678563932E+03  0.15678563932E+03  0.00000000000E+00 0.  1.
        1   -1    0    0  501    0  0.00000000000E+00  0.00000000000E+00 -0.75901021457E+01  0.75901021457E+01  0.00000000000E+00 0. -1.
      -24    2    1    2    0    0  0.00000000000E+00  0.00000000000E+00  0.14919553718E+03  0.16437574147E+03  0.68993304528E+02 0.  0.
       11    1    3    3    0    0 -0.20900882668E+01 -0.12839206705E+02 -0.15228380279E+01  0.13097050563E+02  0.00000000000E+00 0. -1.
      -12    1    3    3    0    0  0.20900882668E+01  0.12839206705E+02  0.15071837520E+03  0.15127869090E+03  0.00000000000E+00 0.  1.
</event>
<event>
 5   1  0.6181100E+00  0.8360206E+02  0.7957747E-01  0.1318161E+00
        1   -1    0    0  501    0  0.00000000000E+00  0.00000000000E+00  0.15219034759E+02  0.15219034759E+02  0.00000000000E+00 0. -1.
       -2   -1    0    0    0  501  0.00000000000E+00  0.00000000000E+00 -0.11481188210E+03  0.11481188210E+03  0.00000000000E+00 0.  1.
      -24    2    1    2    0    0  0.00000000000E+00  0.00000000000E+00 -0.99592847344E+02  0.13003091686E+03  0.83602057975E+02 0.  0.
       11    1    3    3    0    0 -0.69833840002E+01  0.41213562988E+02 -0.49758385010E+02  0.64986323985E+02  0.00000000000E+00 0. -1.
      -12    1    3    3    0    0  0.69833840002E+01 -0.41213562988E+02 -0.49834462334E+02  0.65044592876E+02  0.00000000000E+00 0.  1.
</event>
<event>
 5   1  0.6181100E+00  0.7868967E+02  0.7957747E-01  0.1331126E+00
        1   -1    0    0  501    0  0.00000000000E+00  0.00000000000E+00  0.38930141656E+03  0.38930141656E+03  0.00000000000E+00 0. -1.
       -2   -1    0    0    0  501  0.00000000000E+00  0.00000000000E+00 -0.39763949919E+01  0.39763949919E+01  0.00000000000E+00 0.  1.
      -24    2    1    2    0    0  0.00000000000E+00  0.00000000000E+00  0.38532502157E+03  0.39327781155E+03  0.78689674116E+02 0.  0.
       11    1    3    3    0    0  0.50708605765E+01  0.38990144063E+02  0.18546972497E+03  0.18959157112E+03  0.00000000000E+00 0. -1.
      -12    1    3    3    0    0 -0.50708605765E+01 -0.38990144063E+02  0.19985529660E+03  0.20368624043E+03  0.00000000000E+00 0.  1.
</event>
<event>
 5   1  0.6181100E+00  0.8074161E+02  0.7957747E-01  0.1325583E+00
       -4   -1    0    0    0  501  0.00000000000E+00  0.00000000000E+00  0.10087548412E+03  0.10087548412E+03  0.00000000000E+00 0.  1.
        3   -1    0    0  501    0  0.00000000000E+00  0.00000000000E+00 -0.16156569057E+02  0.16156569057E+02  0.00000000000E+00 0. -1.
      -24    2    1    2    0    0  0.00000000000E+00  0.00000000000E+00  0.84718915064E+02  0.11703205318E+03  0.80741605765E+02 0.  0.
       11    1    3    3    0    0  0.84717759359E+01  0.39163392553E+02  0.49498626541E+02  0.63684035151E+02  0.00000000000E+00 0. -1.
      -12    1    3    3    0    0 -0.84717759359E+01 -0.39163392553E+02  0.35220288523E+02  0.53348018027E+02  0.00000000000E+00 0.  1.
</event>
<event>
 6   2  0.6181100E+00  0.8428222E+02  0.7957747E-01  0.1316445E+00
       -2   -1    0    0    0  501  0.00000000000E+00  0.00000000000E+00  0.13506439473E+03  0.13506439473E+03  0.00000000000E+00 0.  1.
       21   -1    0    0  501  502  0.00000000000E+00  0.00000000000E+00 -0.48231782023E+02  0.48231782023E+02  0.00000000000E+00 0.  1.
      -24    2    1    2    0    0  0.13322088191E+02  0.19641440467E+02  0.11744754595E+03  0.14455939379E+03  0.80871676535E+02 0.  0.
       11    1    3    3    0    0 -0.70489219728E+01  0.91240206107E+01 -0.98803118034E+01  0.15184057903E+02  0.00000000000E+00 0. -1.
      -12    1    3    3    0    0  0.20371010163E+02  0.10517419856E+02  0.12732785775E+03  0.12937533588E+03  0.00000000000E+00 0.  1.
       -1    1    1    2    0  502 -0.13322088191E+02 -0.19641440467E+02 -0.30614933240E+02  0.38736782967E+02  0.00000000000E+00 0.  1.
</event>
<event>
 5   1  0.6181100E+00  0.8054461E+02  0.7957747E-01  0.1326107E+00
        1   -1    0    0  501    0  0.00000000000E+00  0.00000000000E+00  0.38365099240E+01  0.38365099240E+01  0.00000000000E+00 0. -1.
       -2   -1    0    0    0  501  0.00000000000E+00  0.00000000000E+00 -0.42274319144E+03  0.42274319144E+03  0.00000000000E+00 0.  1.
      -24    2    1    2    0    0  0.00000000000E+00  0.00000000000E+00 -0.41890668152E+03  0.42657970136E+03  0.80544607498E+02 0.  0.
       11    1    3    3    0    0  0.84416750327E+01  0.31759669861E+02 -0.86162366949E+02  0.92216549412E+02  0.00000000000E+00 0. -1.
      -12    1    3    3    0    0 -0.84416750327E+01 -0.31759669861E+02 -0.33274431457E+03  0.33436315195E+03  0.00000000000E+00 0.  1.
</event>
<event>
 5   1  0.6181100E+00  0.8210533E+02  0.7957747E-01  0.1322002E+00
        1   -1    0    0  501    0  0.00000000000E+00  0.00000000000E+00  0.41207878210E+02  0.41207878210E+02  0.00000000000E+00 0. -1.
       -2   -1    0    0    0  501  0.00000000000E+00  0.00000000000E+00 -0.40898034847E+02  0.40898034847E+02  0.00000000000E+00 0.  1.
      -24    2    1    2    0    0  0.00000000000E+00  0.00000000000E+00  0.30984336277E+00  0.82105913057E+02  0.82105328427E+02 0.  0.
       11    1    3    3    0    0 -0.37235001812E+02 -0.15485407026E+02  0.78412009912E+01  0.41081962267E+02  0.00000000000E+00 0. -1.
      -12    1    3    3    0    0  0.37235001812E+02  0.15485407026E+02 -0.75313576285E+01  0.41023950790E+02  0.00000000000E+00 0.  1.
</event>
<event>
 6   2  0.6181100E+00  0.8623550E+02  0.7957747E-01  0.1311618E+00
        3   -1    0    0  502    0  0.00000000000E+00  0.00000000000E+00  0.49411374948E+03  0.49411374948E+03  0.00000000000E+00 0. -1.
       21   -1    0    0  501  502  0.00000000000E+00  0.00000000000E+00 -0.75467782510E+01  0.75467782510E+01  0.00000000000E+00 0. -1.
      -24    2    1    2    0    0 -0.20957769549E+02  0.19582259007E+02  0.27625756072E+03  0.28940421776E+03  0.81325693555E+02 0.  0.
       11    1    3    3    0    0 -0.12991237792E+02  0.40424138766E+01  0.10531714666E+01  0.13646337950E+02  0.00000000000E+00 0. -1.
      -12    1    3    3    0    0 -0.79665317568E+01  0.15539845130E+02  0.27520438925E+03  0.27575787981E+03  0.00000000000E+00 0.  1.
        4    1    1    2  501    0  0.20957769549E+02 -0.19582259007E+02  0.21030941051E+03  0.21225630997E+03  0.00000000000E+00 0. -1.
</event>
<event>
 5   1  0.6181100E+00  0.7756906E+02  0.7957747E-01  0.1334234E+00
       -2   -1    0    0    0  501  0.00000000000E+00  0.00000000000E+00  0.64541634966E+03  0.64541634966E+03  0.00000000000E+00 0.  1.
        1   -1    0    0  501    0  0.00000000000E+00  0.00000000000E+00 -0.23306503044E+01  0.23306503044E+01  0.00000000000E+00 0. -1.
      -24    2    1    2    0    0  0.00000000000E+00  0.00000000000E+00  0.64308569935E+03  0.64774699996E+03  0.77569061147E+02 0.  0.
       11    1    3    3    0    0 -0.31470421431E+02 -0.13386811344E+02  0.16878290957E+03  0.17221284710E+03  0.00000000000E+00 0. -1.
      -12    1    3    3    0    0  0.31470421431E+02  0.13386811344E+02  0.47430278979E+03  0.47553415287E+03  0.00000000000E+00 0.  1.
</event>
<event>
 5   1  0.6181100E+00  0.7743511E+02  0.7957747E-01  0.1334610E+00
        1   -1    0    0  501    0  0.00000000000E+00  0.00000000000E+00  0.21959202971E+01  0.21959202971E+01  0.00000000000E+00 0. -1.
       -2   -1    0    0    0  501  0.00000000000E+00  0.00000000000E+00 -0.68265179836E+03  0.68265179836E+03  0.00000000000E+00 0.  1.
      -24    2    1    2    0    0  0.00000000000E+00  0.00000000000E+00 -0.68045587806E+03  0.68484771866E+03  0.77435106764E+02 0.  0.
       11    1    3    3    0    0 -0.31066407141E+02 -0.18125826465E+02 -0.21348114399E+03  0.21648987523E+03  0.00000000000E+00 0. -1.
      -12    1    3    3    0    0  0.31066407141E+02  0.18125826465E+02 -0.46697473407E+03  0.46835784342E+03  0.00000000000E+00 0.  1.
</event>
<event>
 5   1  0.6181100E+00  0.8068786E+02  0.7957747E-01  0.1325726E+00
       -2   -1    0    0    0  501  0.00000000000E+00  0.00000000000E+00  0.13328501455E+02  0.13328501455E+02  0.00000000000E+00 0.  1.
        1   -1    0    0  501    0  0.00000000000E+00  0.00000000000E+00 -0.12211671735E+03  0.12211671735E+03  0.00000000000E+00 0. -1.
      -24    2    1    2    0    0  0.00000000000E+00  0.00000000000E+00 -0.10878821590E+03  0.13544521881E+03  0.80687863893E+02 0.  0.
       11    1    3    3    0    0  0.33447074105E+02 -0.22470840921E+02 -0.51042141551E+02  0.65030344240E+02  0.00000000000E+00 0. -1.
      -12    1    3    3    0    0 -0.33447074105E+02  0.22470840921E+02 -0.57746074346E+02  0.70414874567E+02  0.00000000000E+00 0.  1.
</event>
<event>
 5   1  0.6181100E+00  0.8521287E+02  0.7957747E-01  0.1314127E+00
        1   -1    0    0  501    0  0.00000000000E+00  0.00000000000E+00  0.61400864315E+01  0.61400864315E+01  0.00000000000E+00 0. -1.
       -2   -1    0    0    0  501  0.00000000000E+00  0.00000000000E+00 -0.29564866219E+03  0.29564866219E+03  0.00000000000E+00 0.  1.
      -24    2    1    2    0    0  0.00000000000E+00  0.00000000000E+00 -0.28950857576E+03  0.30178874862E+03  0.85212870841E+02 0.  0.
       11    1    3    3    0    0  0.35729359099E+02  0.19869458545E+02 -0.10226619323E+03  0.11013517496E+03  0.00000000000E+00 0. -1.
      -12    1    3    3    0    0 -0.35729359099E+02 -0.19869458545E+02 -0.18724238253E+03  0.19165357366E+03  0.00000000000E+00 0.  1.
</event>
<event>
 5   1  0.6181100E+00  0.8074041E+02  0.7957747E-01  0.1325587E+00
        1   -1    0    0  501    0  0.00000000000E+00  0.00000000000E+00  0.15869251747E+01  0.15869251747E+01  0.00000000000E+00 0. -1.
       -2   -1    0    0    0  501  0.00000000000E+00  0.00000000000E+00 -0.10269882844E+04  0.10269882844E+04  0.00000000000E+00 0.  1.
      -24    2    1    2    0    0  0.00000000000E+00  0.00000000000E+00 -0.10254013592E+04  0.10285752096E+04  0.80740412745E+02 0.  0.
       11    1    3    3    0    0  0.10300989552E+02 -0.27820713382E+02 -0.16390212687E+03  0.16656533154E+03  0.00000000000E+00 0. -1.
      -12    1    3    3    0    0 -0.10300989552E+02  0.27820713382E+02 -0.86149923234E+03  0.86200987802E+03  0.00000000000E+00 0.  1.
</event>
<event>
 5   1  0.6181100E+00  0.8069654E+02  0.7957747E-01  0.1325703E+00
       -2   -1    0    0    0  501  0.00000000000E+00  0.00000000000E+00  0.53434286378E+03  0.53434286378E+03  0.00000000000E+00 0.  1.
        1   -1    0    0  501    0  0.00000000000E+00  0.00000000000E+00 -0.30467010878E+01  0.30467010878E+01  0.00000000000E+00 0. -1.
      -24    2    1    2    0    0  0.00000000000E+00  0.00000000000E+00  0.53129616269E+03  0.53738956487E+03  0.80696542288E+02 0.  0.
       11    1    3    3    0    0 -0.10449106558E+02 -0.19982351089E+02  0.42831614766E+02  0.48404807678E+02  0.00000000000E+00 0. -1.
      -12    1    3    3    0    0  0.10449106558E+02  0.19982351089E+02  0.48846454792E+03  0.48898475719E+03  0.00000000000E+00 0.  1.
</event>
<event>
 5   1  0.6181100E+00  0.8348109E+02  0.7957747E-01  0.1318468E+00
       -2   -1    0    0    0  501  0.00000000000E+00  0.00000000000E+00  0.53537372725E+03  0.53537372725E+03  0.00000000000E+00 0.  1.
        1   -1    0    0  501    0  0.00000000000E+00  0.00000000000E+00 -0.32543120692E+01  0.32543120692E+01  0.00000000000E+00 0. -1.
      -24    2    1    2    0    0  0.00000000000E+00  0.00000000000E+00  0.53211941518E+03  0.53862803932E+03  0.83481092042E+02 0.  0.
       11    1    3    3    0    0 -0.22288205486E+02 -0.21591576381E+02  0.85941850720E+02  0.91372654441E+02  0.00000000000E+00 0. -1.
      -12    1    3    3    0    0  0.22288205486E+02  0.21591576381E+02  0.44617756446E+03  0.44725538488E+03  0.00000000000E+00 0.  1.
</event>
<event>
 4   3  0.6181100E+00  0.2391641E+03  0.7957747E-01  0.1127542E+00
       21   -1    0    0  501  502  0.00000000000E+00  0.00000000000E+00  0.45449791815E+03  0.45449791815E+03  0.00000000000E+00 0. -1.
       21   -1    0    0  502  503  0.00000000000E+00  0.00000000000E+00 -0.53414900763E+03  0.53414900763E+03  0.00000000000E+00 0.  1.
        6    1    1    2  501    0 -0.15358560966E+03  0.60679076745E+02  0.39235786271E+03  0.45950427885E+03  0.17300000000E+03 0. -1.
       -6    1    1    2    0  503  0.15358560966E+03 -0.60679076745E+02 -0.47200895219E+03  0.52914264693E+03  0.17300000000E+03 0.  1.
</event>
<event>
 6   2  0.6181100E+00  0.8354238E+02  0.7957747E-01  0.1318312E+00
       -2   -1    0    0    0  501  0.00000000000E+00  0.00000000000E+00  0.59915352493E+03  0.59915352493E+03  0.00000000000E+00 0.  1.
       21   -1    0    0  501  502  0.00000000000E+00  0.00000000000E+00 -0.67138953285E+01  0.67138953285E+01  0.00000000000E+00 0. -1.
      -24    2    1    2    0    0  0.99863696387E+01  0.18595399156E+02  0.56553022835E+03  0.57166753248E+03  0.80831999026E+02 0.  0.
       11    1    3    3    0    0 -0.17002804334E+02  0.25406429114E+02  0.84976007070E+02  0.90307827862E+02  0.00000000000E+00 0. -1.
      -12    1    3    3    0    0  0.26989173973E+02 -0.68110299577E+01  0.48055422128E+03  0.48135970462E+03  0.00000000000E+00 0.  1.
       -1    1    1    2    0  502 -0.99863696387E+01 -0.18595399156E+02  0.26909401253E+02  0.34199887780E+02  0.00000000000E+00 0.  1.
</event>
<event>
 6   2  0.6181100E+00  0.8843869E+02  0.7957747E-01  0.1306344E+00
       21   -1    0    0  501  502  0.00000000000E+00  0.00000000000E+00  0.77955392717E+02  0.77955392717E+02  0.00000000000E+00 0. -1.
       -4   -1    0    0    0  501  0.00000000000E+00  0.00000000000E+00 -0.44539041652E+02  0.44539041652E+02  0.00000000000E+00 0.  1.
      -24    2    1    2    0    0  0.19813189130E+02  0.15257263375E+02  0.11388047343E+02  0.89168877899E+02  0.84829562148E+02 0.  0.
       11    1    3    3    0    0  0.12300178357E+02 -0.12069371133E+02  0.43231966087E+02  0.46539950568E+02  0.00000000000E+00 0. -1.
      -12    1    3    3    0    0  0.75130107730E+01  0.27326634508E+02 -0.31843918744E+02  0.42628927331E+02  0.00000000000E+00 0.  1.
       -3    1    1    2    0  502 -0.19813189130E+02 -0.15257263375E+02  0.22028303722E+02  0.33325556471E+02  0.00000000000E+00 0.  1.
</event>
<event>
 4   3  0.6181100E+00  0.1777768E+03  0.7957747E-01  0.1175515E+00
       21   -1    0    0  501  502  0.00000000000E+00  0.00000000000E+00  0.63400784576E+02  0.63400784576E+02  0.00000000000E+00 0.  1.
       21   -1    0    0  502  503  0.00000000000E+00  0.00000000000E+00 -0.75685825785E+03  0.75685825785E+03  0.00000000000E+00 0.  1.
        6    1    1    2  501    0 -0.36395863591E+02 -0.18733250393E+02 -0.10710260605E+03  0.20754652919E+03  0.17300000000E+03 0.  1.
       -6    1    1    2    0  503  0.36395863591E+02  0.18733250393E+02 -0.58635486722E+03  0.61271251323E+03  0.17300000000E+03 0.  1.
</event>
<event>
 5   1  0.6181100E+00  0.8065486E+02  0.7957747E-01  0.1325814E+00
        1   -1    0    0  501    0  0.00000000000E+00  0.00000000000E+00  0.49498611632E+02  0.49498611632E+02  0.00000000000E+00 0. -1.
       -2   -1    0    0    0  501  0.00000000000E+00  0.00000000000E+00 -0.32855497700E+02  0.32855497700E+02  0.00000000000E+00 0.  1.
      -24    2    1    2    0    0  0.00000000000E+00  0.00000000000E+00  0.16643113933E+02  0.82354109332E+02  0.80654857774E+02 0.  0.
       11    1    3    3    0    0  0.10473181180E+00  0.34363176032E+02  0.29872208772E+02  0.45532270893E+02  0.00000000000E+00 0. -1.
      -12    1    3    3    0    0 -0.10473181180E+00 -0.34363176032E+02 -0.13229094839E+02  0.36821838439E+02  0.00000000000E+00 0.  1.
</event>
<event>
 5   1  0.6181100E+00  0.8060340E+02  0.7957747E-01  0.1325951E+00
       -2   -1    0    0    0  501  0.00000000000E+00  0.00000000000E+00  0.20159217138E+02  0.20159217138E+02  0.00000000000E+00 0.  1.
        1   -1    0    0  501    0  0.00000000000E+00  0.00000000000E+00 -0.80569954970E+02  0.80569954970E+02  0.00000000000E+00 0. -1.
      -24    2    1    2    0    0  0.00000000000E+00  0.00000000000E+00 -0.60410737832E+02  0.10072917211E+03  0.80603404818E+02 0.  0.
       11    1    3    3    0    0  0.74230841095E+01 -0.18903793456E+02 -0.73707673792E+02  0.76454409687E+02  0.00000000000E+00 0. -1.
      -12    1    3    3    0    0 -0.74230841095E+01  0.18903793456E+02  0.13296935960E+02  0.24274762422E+02  0.00000000000E+00 0.  1.
</event>
<event>
 5   1  0.6181100E+00  0.8626078E+02  0.7957747E-01  0.1311557E+00
        1   -1    0    0  501    0  0.00000000000E+00  0.00000000000E+00  0.69118992074E+01  0.69118992074E+01  0.00000000000E+00 0. -1.
       -2   -1    0    0    0  501  0.00000000000E+00  0.00000000000E+00 -0.26913447975E+03  0.26913447975E+03  0.00000000000E+00 0.  1.
      -24    2    1    2    0    0  0.00000000000E+00  0.00000000000E+00 -0.26222258055E+03  0.27604637896E+03  0.86260776655E+02 0.  0.
       11    1    3    3    0    0  0.23883394673E+02 -0.27394325204E+02 -0.56790555988E+02  0.67424274887E+02  0.00000000000E+00 0. -1.
      -12    1    3    3    0    0 -0.23883394673E+02  0.27394325204E+02 -0.20543202456E+03  0.20862210407E+03  0.00000000000E+00 0.  1.
</event>
<event>
 6   2  0.6181100E+00  0.9314988E+02  0.7957747E-01  0.1295625E+00
       21   -1    0    0  501  502  0.00000000000E+00  0.00000000000E+00  0.23906483406E+03  0.23906483406E+03  0.00000000000E+00 0. -1.
        1   -1    0    0  502    0  0.00000000000E+00  0.00000000000E+00 -0.89873486151E+02  0.89873486151E+02  0.00000000000E+00 0. -1.
      -24    2    1    2    0    0 -0.46297130018E+02 -0.18119981444E+02 -0.62050476544E+02  0.11192480364E+03  0.78772724057E+02 0.  0.
       11    1    3    3    0    0  0.35826735221E+01  0.12539011180E+02 -0.50617149291E+02  0.52270050251E+02  0.00000000000E+00 0. -1.
      -12    1    3    3    0    0 -0.49879803541E+02 -0.30658992624E+02 -0.11433327253E+02  0.59654753390E+02  0.00000000000E+00 0.  1.
        2    1    1    2  501    0  0.46297130018E+02  0.18119981444E+02  0.21124182446E+03  0.21701351657E+03  0.00000000000E+00 0. -1.
</event>
<event>
 4   3  0.6181100E+00  0.2125033E+03  0.7957747E-01  0.1146181E+00
       21   -1    0    0  503  502  0.00000000000E+00  0.00000000000E+00  0.49752259810E+03  0.49752259810E+03  0.00000000000E+00 0. -1.
       21   -1    0    0  501  503  0.00000000000E+00  0.00000000000E+00 -0.99255948990E+02  0.99255948990E+02  0.00000000000E+00 0.  1.
        6    1    1    2  501    0  0.10570674625E+03  0.63676860072E+02  0.11185990014E+03  0.24014640529E+03  0.17300000000E+03 0.  1.
       -6    1    1    2    0  502 -0.10570674625E+03 -0.63676860072E+02  0.28640674897E+03  0.35663214181E+03  0.17300000000E+03 0.  1.
</event>
<event>
 5   1  0.6181100E+00  0.6160605E+02  0.7957747E-01  0.1386233E+00
        3   -1    0    0  501    0  0.00000000000E+00  0.00000000000E+00  0.86104807582E+02  0.86104807582E+02  0.00000000000E+00 0. -1.
       -4   -1    0    0    0  501  0.00000000000E+00  0.00000000000E+00 -0.11019436629E+02  0.11019436629E+02  0.00000000000E+00 0.  1.
      -24    2    1    2    0    0  0.00000000000E+00  0.00000000000E+00  0.75085370953E+02  0.97124244210E+02  0.61606053942E+02 0.  0.
       11    1    3    3    0    0  0.10758610780E+02 -0.28863102687E+02  0.37555679383E+02  0.48572167509E+02  0.00000000000E+00 0. -1.
      -12    1    3    3    0    0 -0.10758610780E+02  0.28863102687E+02  0.37529691570E+02  0.48552076701E+02  0.00000000000E+00 0.  1.
</event>
<event>
 5   1  0.6181100E+00  0.8127125E+02  0.7957747E-01  0.1324183E+00
       -2   -1    0    0    0  501  0.00000000000E+00  0.00000000000E+00  0.13308451101E+02  0.13308451101E+02  0.00000000000E+00 0.  1.
        1   -1    0    0  501    0  0.00000000000E+00  0.00000000000E+00 -0.12407558332E+03  0.12407558332E+03  0.00000000000E+00 0. -1.
      -24    2    1    2    0    0  0.00000000000E+00  0.00000000000E+00 -0.11076713222E+03  0.13738403442E+03  0.81271245430E+02 0.  0.
       11    1    3    3    0    0 -0.26519574719E+02 -0.11477098374E+02 -0.10367931153E+03  0.10763090295E+03  0.00000000000E+00 0. -1.
      -12    1    3    3    0    0  0.26519574719E+02  0.11477098374E+02 -0.70878206923E+01  0.29753131474E+02  0.00000000000E+00 0.  1.
</event>
<event>
 5   1  0.6181100E+00  0.7972650E+02  0.7957747E-01  0.1328302E+00
       -2   -1    0    0    0  501  0.00000000000E+00  0.00000000000E+00  0.10016454696E+02  0.10016454696E+02  0.00000000000E+00 0.  1.
        1   -1    0    0  501    0  0.00000000000E+00  0.00000000000E+00 -0.15864681393E+03  0.15864681393E+03  0.00000000000E+00 0. -1.
      -24    2    1    2    0    0  0.00000000000E+00  0.00000000000E+00 -0.14863035924E+03  0.16866326863E+03  0.79726498090E+02 0.  0.
       11    1    3    3    0    0 -0.18807979104E+02  0.17497961234E+02 -0.13880082535E+03  0.14115802437E+03  0.00000000000E+00 0. -1.
      -12    1    3    3    0    0  0.18807979104E+02 -0.17497961234E+02 -0.98295338825E+01  0.27505244258E+02  0.00000000000E+00 0.  1.
</event>
<event>
 5   1  0.6181100E+00  0.7956911E+02  0.7957747E-01  0.1328727E+00
       -4   -1    0    0    0  501  0.00000000000E+00  0.00000000000E+00  0.16179927829E+02  0.16179927829E+02  0.00000000000E+00 0.  1.
        3   -1    0    0  501    0  0.00000000000E+00  0.00000000000E+00 -0.97825589639E+02  0.97825589639E+02  0.00000000000E+00 0. -1.
      -24    2    1    2    0    0  0.00000000000E+00  0.00000000000E+00 -0.81645661810E+02  0.11400551747E+03  0.79569114114E+02 0.  0.
       11    1    3    3    0    0 -0.30568704731E+02  0.18345738527E+02 -0.66122731233E+02  0.75121417830E+02  0.00000000000E+00 0. -1.
      -12    1    3    3    0    0  0.30568704731E+02 -0.18345738527E+02 -0.15522930577E+02  0.38884099639E+02  0.00000000000E+00 0.  1.
</event>
<event>
 5   1  0.6181100E+00  0.7756466E+02  0.7957747E-01  0.1334246E+00
       -4   -1    0    0    0  501  0.00000000000E+00  0.00000000000E+00  0.17514237188E+02  0.17514237188E+02  0.00000000000E+00 0.  1.
        3   -1    0    0  501    0  0.00000000000E+00  0.00000000000E+00 -0.85876941745E+02  0.85876941745E+02  0.00000000000E+00 0. -1.
      -24    2    1    2    0    0  0.00000000000E+00  0.00000000000E+00 -0.68362704557E+02  0.10339117893E+03  0.77564660168E+02 0.  0.
       11    1    3    3    0    0  0.14157132508E+02 -0.15735044338E+02 -0.77498761348E+02  0.80337251830E+02  0.00000000000E+00 0. -1.
      -12    1    3    3    0    0 -0.14157132508E+02  0.15735044338E+02  0.91360567912E+01  0.23053927103E+02  0.00000000000E+00 0.  1.
</event>
<event>
 5   1  0.6181100E+00  0.8081823E+02  0.7957747E-01  0.1325380E+00
       -2   -1    0    0    0  501  0.00000000000E+00  0.00000000000E+00  0.17082861283E+02  0.17082861283E+02  0.00000000000E+00 0.  1.
        1   -1    0    0  501    0  0.00000000000E+00  0.00000000000E+00 -0.95586830389E+02  0.95586830389E+02  0.00000000000E+00 0. -1.
      -24    2    1    2    0    0  0.00000000000E+00  0.00000000000E+00 -0.78503969106E+02  0.11266969167E+03  0.80818229726E+02 0.  0.
       11    1    3    3    0    0  0.97077752715E+01 -0.27569010773E+02 -0.78152598241E+02  0.83439318475E+02  0.00000000000E+00 0. -1.
      -12    1    3    3    0    0 -0.97077752715E+01  0.27569010773E+02 -0.35137086511E+00  0.29230373197E+02  0.00000000000E+00 0.  1.
</event>
<event>
 4   3  0.6181100E+00  0.3452812E+03  0.7957747E-01  0.1073317E+00
       21   -1    0    0  503  502  0.00000000000E+00  0.00000000000E+00  0.12989546276E+04  0.12989546276E+04  0.00000000000E+00 0.  1.
       21   -1    0    0  501  503  0.00000000000E+00  0.00000000000E+00 -0.12174063987E+03  0.12174063987E+03  0.00000000000E+00 0. -1.
        6    1    1    2  501    0 -0.26374059500E+03  0.14046705341E+03  0.23621754708E+03  0.41835131659E+03  0.17300000000E+03 0.  1.
       -6    1    1    2    0  502  0.26374059500E+03 -0.14046705341E+03  0.94099644061E+03  0.10023439508E+04  0.17300000000E+03 0. -1.
</event>
<event>
 5   1  0.6181100E+00  0.7850371E+02  0.7957747E-01  0.1331638E+00
       -2   -1    0    0    0  501  0.00000000000E+00  0.00000000000E+00  0.21981437573E+03  0.21981437573E+03  0.00000000000E+00 0.  1.
        1   -1    0    0  501    0  0.00000000000E+00  0.00000000000E+00 -0.70091330121E+01  0.70091330121E+01  0.00000000000E+00 0. -1.
      -24    2    1    2    0    0  0.00000000000E+00  0.00000000000E+00  0.21280524272E+03  0.22682350874E+03  0.78503711949E+02 0.  0.
       11    1    3    3    0    0 -0.13320098197E+01 -0.14202646146E+02  0.74541896961E+00  0.14284434086E+02  0.00000000000E+00 0. -1.
      -12    1    3    3    0    0  0.13320098197E+01  0.14202646146E+02  0.21205982375E+03  0.21253907466E+03  0.00000000000E+00 0.  1.
</event>
<event>
 5   1  0.6181100E+00  0.7937208E+02  0.7957747E-01  0.1329262E+00
        1   -1    0    0  501    0  0.00000000000E+00  0.00000000000E+00  0.19490118759E+02  0.19490118759E+02  0.00000000000E+00 0. -1.
       -2   -1    0    0    0  501  0.00000000000E+00  0.00000000000E+00 -0.80809253269E+02  0.80809253269E+02  0.00000000000E+00 0.  1.
      -24    2    1    2    0    0  0.00000000000E+00  0.00000000000E+00 -0.61319134510E+02  0.10029937203E+03  0.79372084339E+02 0.  0.
       11    1    3    3    0    0  0.75986795069E+01 -0.35597289674E+02 -0.10676343525E+02  0.37932720354E+02  0.00000000000E+00 0. -1.
      -12    1    3    3    0    0 -0.75986795069E+01  0.35597289674E+02 -0.50642790985E+02  0.62366651675E+02  0.00000000000E+00 0.  1.
</event>
<event>
 5   1  0.6181100E+00  0.8094607E+02  0.7957747E-01  0.1325041E+00
        1   -1    0    0  501    0  0.00000000000E+00  0.00000000000E+00  0.76943757895E+01  0.76943757895E+01  0.00000000000E+00 0. -1.
       -2   -1    0    0    0  501  0.00000000000E+00  0.00000000000E+00 -0.21289141439E+03  0.21289141439E+03  0.00000000000E+00 0.  1.
      -24    2    1    2    0    0  0.00000000000E+00  0.00000000000E+00 -0.20519703860E+03  0.22058579018E+03  0.80946069569E+02 0.  0.
       11    1    3    3    0    0 -0.14083906111E+02 -0.23631855007E+02 -0.21701925092E+02  0.35039899188E+02  0.00000000000E+00 0. -1.
      -12    1    3    3    0    0  0.14083906111E+02  0.23631855007E+02 -0.18349511351E+03  0.18554589099E+03  0.00000000000E+00 0.  1.
</event>
<event>
 6   2  0.6181100E+00  0.8057378E+02  0.7957747E-01  0.1326030E+00
       -4   -1    0    0    0  501  0.00000000000E+00  0.00000000000E+00  0.36070679148E+02  0.36070679148E+02  0.00000000000E+00 0.  1.
       21   -1    0    0  501  502  0.00000000000E+00  0.00000000000E+00 -0.26927761691E+03  0.26927761691E+03  0.00000000000E+00 0.  1.
      -24    2    1    2    0    0  0.32296371614E+01  0.24426553992E+02 -0.10468235047E+02  0.81250958316E+02  0.76714061202E+02 0.  0.
       11    1    3    3    0    0 -0.19385113989E+02  0.44565594394E+02 -0.14465189532E+02  0.50706178679E+02  0.00000000000E+00 0. -1.
      -12    1    3    3    0    0  0.22614751150E+02 -0.20139040402E+02  0.39969544851E+01  0.30544779637E+02  0.00000000000E+00 0.  1.
       -3    1    1    2    0  502 -0.32296371614E+01 -0.24426553992E+02 -0.22273870271E+03  0.22409733774E+03  0.00000000000E+00 0.  1.
</event>
<event>
 4   3  0.6181100E+00  0.1770726E+03  0.7957747E-01  0.1176184E+00
       21   -1    0    0  501  502  0.00000000000E+00  0.00000000000E+00  0.48052565337E+02  0.48052565337E+02  0.00000000000E+00 0. -1.
       21   -1    0    0  502  503  0.00000000000E+00  0.00000000000E+00 -0.72476895688E+03  0.72476895688E+03  0.00000000000E+00 0.  1.
        6    1    1    2  501    0  0.86171174812E+01 -0.36762000343E+02 -0.21634683541E+03  0.27957226718E+03  0.17300000000E+03 0.  1.
       -6    1    1    2    0  503 -0.86171174812E+01  0.36762000343E+02 -0.46036955613E+03  0.49324925504E+03  0.17300000000E+03 0.  1.
</event>
<event>
 4   3  0.6181100E+00  0.1800773E+03  0.7957747E-01  0.1173351E+00
       21   -1    0    0  503  502  0.00000000000E+00  0.00000000000E+00  0.71233220134E+03  0.71233220134E+03  0.00000000000E+00 0.  1.
       21   -1    0    0  501  503  0.00000000000E+00  0.00000000000E+00 -0.45534451492E+02  0.45534451492E+02  0.00000000000E+00 0.  1.
        6    1    1    2  501    0  0.44584370246E+02  0.22606640072E+02  0.33928632756E+03  0.38411331442E+03  0.17300000000E+03 0.  1.
       -6    1    1    2    0  502 -0.44584370246E+02 -0.22606640072E+02  0.32751142228E+03  0.37375333841E+03  0.17300000000E+03 0.  1.
</event>
<event>
 5   1  0.6181100E+00  0.8065804E+02  0.7957747E-01  0.1325805E+00
        1   -1    0    0  501    0  0.00000000000E+00  0.00000000000E+00  0.11738806464E+03  0.11738806464E+03  0.00000000000E+00 0. -1.
       -2   -1    0    0    0  501  0.00000000000E+00  0.00000000000E+00 -0.13855156790E+02  0.13855156790E+02  0.00000000000E+00 0.  1.
      -24    2    1    2    0    0  0.00000000000E+00  0.00000000000E+00  0.10353290785E+03  0.13124322143E+03  0.80658044632E+02 0.  0.
       11    1    3    3    0    0  0.52500279795E+01 -0.23119272113E+02  0.10485181698E+03  0.10749868400E+03  0.00000000000E+00 0. -1.
      -12    1    3    3    0    0 -0.52500279795E+01  0.23119272113E+02 -0.13189091271E+01  0.23744537438E+02  0.00000000000E+00 0.  1.
</event>
<event>
 5   1  0.6181100E+00  0.8027502E+02  0.7957747E-01  0.1326827E+00
        3   -1    0    0  501    0  0.00000000000E+00  0.00000000000E+00  0.33262025402E+03  0.33262025402E+03  0.00000000000E+00 0. -1.
       -4   -1    0    0    0  501  0.00000000000E+00  0.00000000000E+00 -0.48434203025E+01  0.48434203025E+01  0.00000000000E+00 0.  1.
      -24    2    1    2    0    0  0.00000000000E+00  0.00000000000E+00  0.32777683371E+03  0.33746367432E+03  0.80275019559E+02 0.  0.
       11    1    3    3    0    0 -0.29430046765E+02  0.67264617492E+00  0.49188965593E+02  0.57324815233E+02  0.00000000000E+00 0. -1.
      -12    1    3    3    0    0  0.29430046765E+02 -0.67264617492E+00  0.27858786812E+03  0.28013885909E+03  0.00000000000E+00 0.  1.
</event>
<event>
 5   1  0.6181100E+00  0.8058388E+02  0.7957747E-01  0.1326003E+00
        1   -1    0    0  501    0  0.00000000000E+00  0.00000000000E+00  0.59157068203E+02  0.59157068203E+02  0.00000000000E+00 0. -1.
       -2   -1    0    0    0  501  0.00000000000E+00  0.00000000000E+00 -0.27442880546E+02  0.27442880546E+02  0.00000000000E+00 0.  1.
      -24    2    1    2    0    0  0.00000000000E+00  0.00000000000E+00  0.31714187658E+02  0.86599948749E+02  0.80583878193E+02 0.  0.
       11    1    3    3    0    0  0.26853137149E+02  0.27654767866E+02  0.28461448020E+02  0.47915876114E+02  0.00000000000E+00 0. -1.
      -12    1    3    3    0    0 -0.26853137149E+02 -0.27654767866E+02  0.32527396379E+01  0.38684072635E+02  0.00000000000E+00 0.  1.
</event>
<event>
 4   3  0.6181100E+00  0.1895687E+03  0.7957747E-01  0.1164785E+00
       21   -1    0    0  501  502  0.00000000000E+00  0.00000000000E+00  0.13455704900E+03  0.13455704900E+03  0.00000000000E+00 0. -1.
       21   -1    0    0  502  503  0.00000000000E+00  0.00000000000E+00 -0.29329856886E+03  0.29329856886E+03  0.00000000000E+00 0. -1.
        6    1    1    2  501    0 -0.57957014222E+02 -0.51461475616E+02 -0.15398680399E+02  0.19019310799E+03  0.17300000000E+03 0. -1.
       -6    1    1    2    0  503  0.57957014222E+02  0.51461475616E+02 -0.14334283946E+03  0.23766250987E+03  0.17300000000E+03 0. -1.
</event>
<event>
 4   3  0.6181100E+00  0.1935627E+03  0.7957747E-01  0.1161344E+00
       21   -1    0    0  501  502  0.00000000000E+00  0.00000000000E+00  0.11464636584E+04  0.11464636584E+04  0.00000000000E+00 0. -1.
       21   -1    0    0  502  503  0.00000000000E+00  0.00000000000E+00 -0.41077067999E+02  0.41077067999E+02  0.00000000000E+00 0. -1.
        6    1    1    2  501    0 -0.82547221337E+02 -0.26897397780E+02  0.82115404411E+03  0.84365898201E+03  0.17300000000E+03 0. -1.
       -6    1    1    2    0  503  0.82547221337E+02  0.26897397780E+02  0.28423254630E+03  0.34388174440E+03  0.17300000000E+03 0. -1.
</event>
<event>
 5   1  0.6181100E+00  0.8360674E+02  0.7957747E-01  0.1318149E+00
        1   -1    0    0  501    0  0.00000000000E+00  0.00000000000E+00  0.26388436100E+01  0.26388436100E+01  0.00000000000E+00 0. -1.
       -2   -1    0    0    0  501  0.00000000000E+00  0.00000000000E+00 -0.66223014220E+03  0.66223014220E+03  0.00000000000E+00 0.  1.
      -24    2    1    2    0    0  0.00000000000E+00  0.00000000000E+00 -0.65959129859E+03  0.66486898581E+03  0.83606740855E+02 0.  0.
       11    1    3    3    0    0  0.37451022042E+01 -0.37076537385E+02 -0.17915681268E+03  0.18299141768E+03  0.00000000000E+00 0. -1.
      -12    1    3    3    0    0 -0.37451022042E+01  0.37076537385E+02 -0.48043448591E+03  0.48187756813E+03  0.00000000000E+00 0.  1.
</event>
<event>
 6   2  0.6181100E+00  0.1124298E+03  0.7957747E-01  0.1258206E+00
        1   -1    0    0  502    0  0.00000000000E+00  0.00000000000E+00  0.29315708816E+03  0.29315708816E+03  0.00000000000E+00 0. -1.
       21   -1    0    0  501  502  0.00000000000E+00  0.00000000000E+00 -0.64709501515E+02  0.64709501515E+02  0.00000000000E+00 0. -1.
      -24    2    1    2    0    0  0.26964159075E+02  0.74670291316E+02  0.25125759916E+03  0.27526504640E+03  0.79609963925E+02 0.  0.
       11    1    3    3    0    0  0.28070139659E+02  0.91363622744E+02  0.20908029161E+03  0.22989087115E+03  0.00000000000E+00 0. -1.
      -12    1    3    3    0    0 -0.11059805844E+01 -0.16693331428E+02  0.42177307552E+02  0.45374175249E+02  0.00000000000E+00 0.  1.
        2    1    1    2  501    0 -0.26964159075E+02 -0.74670291316E+02 -0.22810012515E+02  0.82601543271E+02  0.00000000000E+00 0. -1.
</event>
<event>
 5   1  0.6181100E+00  0.7976852E+02  0.7957747E-01  0.1328188E+00
       -2   -1    0    0    0  501  0.00000000000E+00  0.00000000000E+00  0.18462676368E+02  0.18462676368E+02  0.00000000000E+00 0.  1.
        1   -1    0    0  501    0  0.00000000000E+00  0.00000000000E+00 -0.86160533367E+02  0.86160533367E+02  0.00000000000E+00 0. -1.
      -24    2    1    2    0    0  0.00000000000E+00  0.00000000000E+00 -0.67697856998E+02  0.10462320974E+03  0.79768516177E+02 0.  0.
       11    1    3    3    0    0  0.14923385357E+02  0.32240565062E+02 -0.57624195366E+02  0.67695711516E+02  0.00000000000E+00 0. -1.
      -12    1    3    3    0    0 -0.14923385357E+02 -0.32240565062E+02 -0.10073661632E+02  0.36927498219E+02  0.00000000000E+00 0.  1.
</event>
<event>
 6   2  0.6181100E+00  0.8634002E+02  0.7957747E-01  0.1311364E+00
       -4   -1    0    0    0  501  0.00000000000E+00  0.00000000000E+00  0.18022712433E+02  0.18022712433E+02  0.00000000000E+00 0.  1.
       21   -1    0    0  501  502  0.00000000000E+00  0.00000000000E+00 -0.20184730351E+03  0.20184730351E+03  0.00000000000E+00 0. -1.
      -24    2    1    2    0    0  0.50623077302E+01 -0.27632330289E+02 -0.16447231969E+03  0.18575721710E+03  0.81642067134E+02 0.  0.
       11    1    3    3    0    0 -0.31183738329E+02 -0.35304669848E+02 -0.11219839073E+03  0.12168534888E+03  0.00000000000E+00 0. -1.
      -12    1    3    3    0    0  0.36246046059E+02  0.76723395592E+01 -0.52273928959E+02  0.64071868227E+02  0.00000000000E+00 0.  1.
       -3    1    1    2    0  502 -0.50623077302E+01  0.27632330289E+02 -0.19352271391E+02  0.34112798841E+02  0.00000000000E+00 0.  1.
</event>
<event>
 4   3  0.6181100E+00  0.2424377E+03  0.7957747E-01  0.1125437E+00
       21   -1    0    0  501  502  0.00000000000E+00  0.00000000000E+00  0.19210109949E+03  0.19210109949E+03  0.00000000000E+00 0.  1.
       21   -1    0    0  502  503  0.00000000000E+00  0.00000000000E+00 -0.41732152367E+03  0.41732152367E+03  0.00000000000E+00 0. -1.
        6    1    1    2  501    0  0.63893013513E+02  0.15736812794E+03 -0.27001310951E+03  0.36288169446E+03  0.17300000000E+03 0. -1.
       -6    1    1    2    0  503 -0.63893013513E+02 -0.15736812794E+03  0.44792685322E+02  0.24654092870E+03  0.17300000000E+03 0.  1.
</event>
<event>
 5   1  0.6181100E+00  0.7916984E+02  0.7957747E-01  0.1329812E+00
        1   -1    0    0  501    0  0.00000000000E+00  0.00000000000E+00  0.45668213044E+02  0.45668213044E+02  0.00000000000E+00 0. -1.
       -2   -1    0    0    0  501  0.00000000000E+00  0.00000000000E+00 -0.34311958445E+02  0.34311958445E+02  0.00000000000E+00 0.  1.
      -24    2    1    2    0    0  0.00000000000E+00  0.00000000000E+00  0.11356254599E+02  0.79980171488E+02  0.79169838403E+02 0.  0.
       11    1    3    3    0    0  0.96952401789E+01  0.22582541926E+02  0.37027945557E+02  0.44441395502E+02  0.00000000000E+00 0. -1.
      -12    1    3    3    0    0 -0.96952401789E+01 -0.22582541926E+02 -0.25671690958E+02  0.35538775987E+02  0.00000000000E+00 0.  1.
</event>
<event>
 5   1  0.6181100E+00  0.7936675E+02  0.7957747E-01  0.1329276E+00
        1   -1    0    0  501    0  0.00000000000E+00  0.00000000000E+00  0.18498445263E+03  0.18498445263E+03  0.00000000000E+00 0. -1.
       -2   -1    0    0    0  501  0.00000000000E+00  0.00000000000E+00 -0.85129881091E+01  0.85129881091E+01  0.00000000000E+00 0.  1.
      -24    2    1    2    0    0  0.00000000000E+00  0.00000000000E+00  0.17647146452E+03  0.19349744074E+03  0.79366754894E+02 0.  0.
       11    1    3    3    0    0  0.31677824406E+02 -0.13206545579E+02  0.13680509451E+03  0.14104443020E+03  0.00000000000E+00 0. -1.
      -12    1    3    3    0    0 -0.31677824406E+02  0.13206545579E+02  0.39666370011E+02  0.52453010544E+02  0.00000000000E+00 0.  1.
</event>
<event>
 5   1  0.6181100E+00  0.7896780E+02  0.7957747E-01  0.1330363E+00
        3   -1    0    0  501    0  0.00000000000E+00  0.00000000000E+00  0.60655943099E+01  0.60655943099E+01  0.00000000000E+00 0. -1.
       -4   -1    0    0    0  501  0.00000000000E+00  0.00000000000E+00 -0.25701989066E+03  0.25701989066E+03  0.00000000000E+00 0.  1.
      -24    2    1    2    0    0  0.00000000000E+00  0.00000000000E+00 -0.25095429635E+03  0.26308548497E+03  0.78967800686E+02 0.  0.
       11    1    3    3    0    0 -0.35363385509E+02 -0.63304415785E+01 -0.70903197492E+02  0.79485262407E+02  0.00000000000E+00 0. -1.
      -12    1    3    3    0    0  0.35363385509E+02  0.63304415785E+01 -0.18005109885E+03  0.18360022256E+03  0.00000000000E+00 0.  1.
</event>
<event>
 4   3  0.6181100E+00  0.2807652E+03  0.7957747E-01  0.1103202E+00
       21   -1    0    0  503  502  0.00000000000E+00  0.00000000000E+00  0.30514970891E+03  0.30514970891E+03  0.00000000000E+00 0.  1.
       21   -1    0    0  501  503  0.00000000000E+00  0.00000000000E+00 -0.30111348194E+03  0.30111348194E+03  0.00000000000E+00 0.  1.
        6    1    1    2  501    0  0.18014497252E+03 -0.12824927943E+03 -0.11224553450E+03  0.30237087957E+03  0.17300000000E+03 0.  1.
       -6    1    1    2    0  502 -0.18014497252E+03  0.12824927943E+03  0.11628176147E+03  0.30389231127E+03  0.17300000000E+03 0.  1.
</event>
<event>
 5   1  0.6181100E+00  0.8430750E+02  0.7957747E-01  0.1316382E+00
        1   -1    0    0  501    0  0.00000000000E+00  0.00000000000E+00  0.31900504500E+02  0.31900504500E+02  0.00000000000E+00 0. -1.
       -2   -1    0    0    0  501  0.00000000000E+00  0.00000000000E+00 -0.55702528624E+02  0.55702528624E+02  0.00000000000E+00 0.  1.
      -24    2    1    2    0    0  0.00000000000E+00  0.00000000000E+00 -0.23802024123E+02  0.87603033124E+02  0.84307502989E+02 0.  0.
       11    1    3    3    0    0  0.67637722988E+01  0.37363394472E+02  0.71221838163E+01  0.38632853434E+02  0.00000000000E+00 0. -1.
      -12    1    3    3    0    0 -0.67637722988E+01 -0.37363394472E+02 -0.30924207940E+02  0.48970179690E+02  0.00000000000E+00 0.  1.
</event>
<event>
 5   1  0.6181100E+00  0.8389270E+02  0.7957747E-01  0.1317425E+00
        1   -1    0    0  501    0  0.00000000000E+00  0.00000000000E+00  0.30724331030E+01  0.30724331030E+01  0.00000000000E+00 0. -1.
       -2   -1    0    0    0  501  0.00000000000E+00  0.00000000000E+00 -0.57267197684E+03  0.57267197684E+03  0.00000000000E+00 0.  1.
      -24    2    1    2    0    0  0.00000000000E+00  0.00000000000E+00 -0.56959954374E+03  0.57574440994E+03  0.83892701442E+02 0.  0.
       11    1    3    3    0    0  0.86696085702E+01  0.30962999676E+02 -0.99931564124E+02  0.10497707831E+03  0.00000000000E+00 0. -1.
      -12    1    3    3    0    0 -0.86696085702E+01 -0.30962999676E+02 -0.46966797961E+03  0.47076733163E+03  0.00000000000E+00 0.  1.
</event>
<event>
 5   1  0.6181100E+00  0.8187313E+02  0.7957747E-01  0.1322606E+00
        1   -1    0    0  501    0  0.00000000000E+00  0.00000000000E+00  0.95032498132E+02  0.95032498132E+02  0.00000000000E+00 0. -1.
       -2   -1    0    0    0  501  0.00000000000E+00  0.00000000000E+00 -0.17633992000E+02  0.17633992000E+02  0.00000000000E+00 0.  1.
      -24    2    1    2    0    0  0.00000000000E+00  0.00000000000E+00  0.77398506132E+02  0.11266649013E+03  0.81873128969E+02 0.  0.
       11    1    3    3    0    0 -0.23136174700E+02 -0.23294243750E+02  0.72347845779E+02  0.79448821014E+02  0.00000000000E+00 0. -1.
      -12    1    3    3    0    0  0.23136174700E+02  0.23294243750E+02  0.50506603526E+01  0.33217669118E+02  0.00000000000E+00 0.  1.
</event>
<event>
 5   1  0.6181100E+00  0.8108987E+02  0.7957747E-01  0.1324661E+00
        1   -1    0    0  501    0  0.00000000000E+00  0.00000000000E+00  0.18457426434E+02  0.18457426434E+02  0.00000000000E+00 0. -1.
       -2   -1    0    0    0  501  0.00000000000E+00  0.00000000000E+00 -0.89063980576E+02  0.89063980576E+02  0.00000000000E+00 0.  1.
      -24    2    1    2    0    0  0.00000000000E+00  0.00000000000E+00 -0.70606554142E+02  0.10752140701E+03  0.81089872842E+02 0.  0.
       11    1    3    3    0    0 -0.18175462608E+02 -0.31086204172E+02 -0.10596654205E+02  0.37536497056E+02  0.00000000000E+00 0. -1.
      -12    1    3    3    0    0  0.18175462608E+02  0.31086204172E+02 -0.60009899936E+02  0.69984909954E+02  0.00000000000E+00 0.  1.
</event>
<event>
 5   1  0.6181100E+00  0.7923653E+02  0.7957747E-01  0.1329630E+00
       -2   -1    0    0    0  501  0.00000000000E+00  0.00000000000E+00  0.79990562485E+01  0.79990562485E+01  0.00000000000E+00 0.  1.
        1   -1    0    0  501    0  0.00000000000E+00  0.00000000000E+00 -0.19622400201E+03  0.19622400201E+03  0.00000000000E+00 0. -1.
      -24    2    1    2    0    0  0.00000000000E+00  0.00000000000E+00 -0.18822494576E+03  0.20422305826E+03  0.79236527672E+02 0.  0.
       11    1    3    3    0    0 -0.38312124584E+02  0.89429514414E+01 -0.10614959570E+03  0.11320570630E+03  0.00000000000E+00 0. -1.
      -12    1    3    3    0    0  0.38312124584E+02 -0.89429514414E+01 -0.82075350058E+02  0.91017351960E+02  0.00000000000E+00 0.  1.
</event>
<event>
 6   2  0.6181100E+00  0.9225055E+02  0.7957747E-01  0.1297615E+00
        3   -1    0    0  502    0  0.00000000000E+00  0.00000000000E+00  0.11408632684E+03  0.11408632684E+03  0.00000000000E+00 0. -1.
       -4   -1    0    0    0  501  0.00000000000E+00  0.00000000000E+00 -0.53863318175E+02  0.53863318175E+02  0.00000000000E+00 0.  1.
      -24    2    1    2    0    0 -0.37220613711E+02 -0.26468223646E+02 -0.14581175896E+00  0.92250665977E+02  0.80151251793E+02 0.  0.
       11    1    3    3    0    0  0.25549837749E+01  0.25624820221E+02  0.59350528971E+01  0.26426959839E+02  0.00000000000E+00 0. -1.
      -12    1    3    3    0    0 -0.39775597486E+02 -0.52093043867E+02 -0.60808646560E+01  0.65823706137E+02  0.00000000000E+00 0.  1.
       21    1    1    2  502  501  0.37220613711E+02  0.26468223646E+02  0.60368820421E+02  0.75698979036E+02  0.00000000000E+00 0. -1.
</event>
<event>
 6   2  0.6181100E+00  0.8880374E+02  0.7957747E-01  0.1305487E+00
        3   -1    0    0  502    0  0.00000000000E+00  0.00000000000E+00  0.66102215558E+02  0.66102215558E+02  0.00000000000E+00 0. -1.
       21   -1    0    0  501  502  0.00000000000E+00  0.00000000000E+00 -0.18474198091E+03  0.18474198091E+03  0.00000000000E+00 0. -1.
      -24    2    1    2    0    0 -0.40041652315E+01  0.34964374475E+02  0.33330160467E+02  0.94852532667E+02  0.81532585724E+02 0.  0.
       11    1    3    3    0    0  0.21675736304E+02  0.64643213485E+01  0.48565933211E+02  0.53574946229E+02  0.00000000000E+00 0. -1.
      -12    1    3    3    0    0 -0.25679901535E+02  0.28500053126E+02 -0.15235772743E+02  0.41277586438E+02  0.00000000000E+00 0.  1.
        4    1    1    2  501    0  0.40041652315E+01 -0.34964374475E+02 -0.15196992582E+03  0.15599166380E+03  0.00000000000E+00 0. -1.
</event>
<event>
 6   2  0.6181100E+00  0.8795543E+02  0.7957747E-01  0.1307486E+00
       21   -1    0    0  501  502  0.00000000000E+00  0.00000000000E+00  0.23775062914E+02  0.23775062914E+02  0.00000000000E+00 0. -1.
        1   -1    0    0  502    0  0.00000000000E+00  0.00000000000E+00 -0.29562656612E+03  0.29562656612E+03  0.00000000000E+00 0. -1.
      -24    2    1    2    0    0 -0.22938183972E+01 -0.35191792746E+02 -0.27013497994E+03  0.28409341000E+03  0.80575643587E+02 0.  0.
       11    1    3    3    0    0  0.37669856590E+02 -0.53434413080E+01 -0.11332338678E+03  0.11953978606E+03  0.00000000000E+00 0. -1.
      -12    1    3    3    0    0 -0.39963674987E+02 -0.29848351438E+02 -0.15681159316E+03  0.16455362394E+03  0.00000000000E+00 0.  1.
        2    1    1    2  501    0  0.22938183972E+01  0.35191792746E+02 -0.17165232706E+01  0.35308219038E+02  0.00000000000E+00 0. -1.
</event>
<event>
 5   1  0.6181100E+00  0.8296435E+02  0.7957747E-01  0.1319786E+00
        1   -1    0    0  501    0  0.00000000000E+00  0.00000000000E+00  0.47740013863E+02  0.47740013863E+02  0.00000000000E+00 0. -1.
       -2   -1    0    0    0  501  0.00000000000E+00  0.00000000000E+00 -0.36044620486E+02  0.36044620486E+02  0.00000000000E+00 0.  1.
      -24    2    1    2    0    0  0.00000000000E+00  0.00000000000E+00  0.11695393377E+02  0.83784634349E+02  0.82964346118E+02 0.  0.
       11    1    3    3    0    0 -0.35569129599E+02 -0.34324968479E+01  0.27123163167E+02  0.44862133200E+02  0.00000000000E+00 0. -1.
      -12    1    3    3    0    0  0.35569129599E+02  0.34324968479E+01 -0.15427769791E+02  0.38922501150E+02  0.00000000000E+00 0.  1.
</event>
<event>
 5   1  0.6181100E+00  0.8091454E+02  0.7957747E-01  0.1325125E+00
       -2   -1    0    0    0  501  0.00000000000E+00  0.00000000000E+00  0.54471004262E+02  0.54471004262E+02  0.00000000000E+00 0.  1.
        1   -1    0    0  501    0  0.00000000000E+00  0.00000000000E+00 -0.30048842730E+02  0.30048842730E+02  0.00000000000E+00 0. -1.
      -24    2    1    2    0    0  0.00000000000E+00  0.00000000000E+00  0.24422161531E+02  0.84519846992E+02  0.80914538630E+02 0.  0.
       11    1    3    3    0    0  0.81357394032E+01 -0.23928774257E+02 -0.20787897170E+02  0.32724809577E+02  0.00000000000E+00 0. -1.
      -12    1    3    3    0    0 -0.81357394032E+01  0.23928774257E+02  0.45210058702E+02  0.51795037415E+02  0.00000000000E+00 0.  1.
</event>
<event>
 5   1  0.6181100E+00  0.7794221E+02  0.7957747E-01  0.1333193E+00
       -2   -1    0    0    0  501  0.00000000000E+00  0.00000000000E+00  0.53145606016E+02  0.53145606016E+02  0.00000000000E+00 0.  1.
        1   -1    0    0  501    0  0.00000000000E+00  0.00000000000E+00 -0.28577093710E+02  0.28577093710E+02  0.00000000000E+00 0. -1.
      -24    2    1    2    0    0  0.00000000000E+00  0.00000000000E+00  0.24568512306E+02  0.81722699725E+02  0.77942208420E+02 0.  0.
       11    1    3    3    0    0  0.16636951817E+02  0.14849691760E+01 -0.24633704152E+02  0.29762605388E+02  0.00000000000E+00 0. -1.
      -12    1    3    3    0    0 -0.16636951817E+02 -0.14849691760E+01  0.49202216458E+02  0.51960094338E+02  0.00000000000E+00 0.  1.
</event>
<event>
 6   2  0.6181100E+00  0.9739533E+02  0.7957747E-01  0.1286560E+00
       -4   -1    0    0    0  501  0.00000000000E+00  0.00000000000E+00  0.15485837515E+02  0.15485837515E+02  0.00000000000E+00 0.  1.
        3   -1    0    0  502    0  0.00000000000E+00  0.00000000000E+00 -0.38065439952E+03  0.38065439952E+03  0.00000000000E+00 0. -1.
      -24    2    1    2    0    0  0.43349826231E+02  0.34724449872E+02 -0.24920928505E+03  0.26756516649E+03  0.80005348018E+02 0.  0.
       11    1    3    3    0    0  0.50039559106E+02 -0.17445528122E+01 -0.19867867705E+03  0.20489074565E+03  0.00000000000E+00 0. -1.
      -12    1    3    3    0    0 -0.66897328753E+01  0.36469002684E+02 -0.50530608005E+02  0.62674420843E+02  0.00000000000E+00 0.  1.
       21    1    1    2  502  501 -0.43349826231E+02 -0.34724449872E+02 -0.11595927696E+03  0.12857507054E+03  0.00000000000E+00 0.  1.
</event>
<event>
 5   1  0.6181100E+00  0.8042207E+02  0.7957747E-01  0.1326434E+00
       -4   -1    0    0    0  501  0.00000000000E+00  0.00000000000E+00  0.38990196521E+02  0.38990196521E+02  0.00000000000E+00 0.  1.
        3   -1    0    0  501    0  0.00000000000E+00  0.00000000000E+00 -0.41470101963E+02  0.41470101963E+02  0.00000000000E+00 0. -1.
      -24    2    1    2    0    0  0.00000000000E+00  0.00000000000E+00 -0.24799054416E+01  0.80460298484E+02  0.80422072226E+02 0.  0.
       11    1    3    3    0    0  0.15519721476E+02  0.41455467380E+01 -0.38120465555E+02  0.41366861213E+02  0.00000000000E+00 0. -1.
      -12    1    3    3    0    0 -0.15519721476E+02 -0.41455467380E+01  0.35640560114E+02  0.39093437271E+02  0.00000000000E+00 0.  1.
</event>
<event>
 5   1  0.6181100E+00  0.8020562E+02  0.7957747E-01  0.1327013E+00
        3   -1    0    0  501    0  0.00000000000E+00  0.00000000000E+00  0.86383716317E+01  0.86383716317E+01  0.00000000000E+00 0. -1.
       -4   -1    0    0    0  501  0.00000000000E+00  0.00000000000E+00 -0.18617342694E+03  0.18617342694E+03  0.00000000000E+00 0.  1.
      -24    2    1    2    0    0  0.00000000000E+00  0.00000000000E+00 -0.17753505531E+03  0.19481179857E+03  0.80205617007E+02 0.  0.
       11    1    3    3    0    0  0.27811740183E+02  0.28442455784E+02 -0.10109743513E+03  0.10864233785E+03  0.00000000000E+00 0. -1.
      -12    1    3    3    0    0 -0.27811740183E+02 -0.28442455784E+02 -0.76437620178E+02  0.86169460725E+02  0.00000000000E+00 0.  1.
</event>
<event>
 5   1  0.6181100E+00  0.7683252E+02  0.7957747E-01  0.1336310E+00
       -2   -1    0    0    0  501  0.00000000000E+00  0.00000000000E+00  0.10590268096E+02  0.10590268096E+02  0.00000000000E+00 0.  1.
        1   -1    0    0  501    0  0.00000000000E+00  0.00000000000E+00 -0.13935520986E+03  0.13935520986E+03  0.00000000000E+00 0. -1.
      -24    2    1    2    0    0  0.00000000000E+00  0.00000000000E+00 -0.12876494176E+03  0.14994547795E+03  0.76832520015E+02 0.  0.
       11    1    3    3    0    0  0.14836349399E+02 -0.34334124939E+02 -0.47272965620E+02  0.60280035479E+02  0.00000000000E+00 0. -1.
      -12    1    3    3    0    0 -0.14836349399E+02  0.34334124939E+02 -0.81491976142E+02  0.89665442476E+02  0.00000000000E+00 0.  1.
</event>
<event>
 6   2  0.6181100E+00  0.9824115E+02  0.7957747E-01  0.1284816E+00
        1   -1    0    0  502    0  0.00000000000E+00  0.00000000000E+00  0.80997572052E+03  0.80997572052E+03  0.00000000000E+00 0. -1.
       -2   -1    0    0    0  501  0.00000000000E+00  0.00000000000E+00 -0.33468815424E+02  0.33468815424E+02  0.00000000000E+00 0.  1.
      -24    2    1    2    0    0  0.52554019918E+02 -0.14927595758E+02  0.41890666204E+02  0.10679958987E+03  0.81649043826E+02 0.  0.
       11    1    3    3    0    0  0.14225848163E+02 -0.45999266033E+02  0.14100329477E+02  0.50170972911E+02  0.00000000000E+00 0. -1.
      -12    1    3    3    0    0  0.38328171756E+02  0.31071670274E+02  0.27790336728E+02  0.56628616964E+02  0.00000000000E+00 0.  1.
       21    1    1    2  502  501 -0.52554019918E+02  0.14927595758E+02  0.73461623889E+03  0.73664494607E+03  0.00000000000E+00 0. -1.
</event>
<event>
 6   2  0.6181100E+00  0.9178540E+02  0.7957747E-01  0.1298655E+00
       -2   -1    0    0    0  501  0.00000000000E+00  0.00000000000E+00  0.51107330844E+02  0.51107330844E+02  0.00000000000E+00 0.  1.
        1   -1    0    0  502    0  0.00000000000E+00  0.00000000000E+00 -0.20914355350E+03  0.20914355350E+03  0.00000000000E+00 0. -1.
      -24    2    1    2    0    0  0.46242953892E+02 -0.92736847295E+01 -0.18457224355E+03  0.20613459827E+03  0.78741015391E+02 0.  0.
       11    1    3    3    0    0  0.28476522107E+02  0.31631359468E+02 -0.12264768462E+03  0.12982260880E+03  0.00000000000E+00 0. -1.
      -12    1    3    3    0    0  0.17766431785E+02 -0.40905044197E+02 -0.61924558923E+02  0.76311989471E+02  0.00000000000E+00 0.  1.
       21    1    1    2  502  501 -0.46242953892E+02  0.92736847295E+01  0.26536020891E+02  0.54116286069E+02  0.00000000000E+00 0.  1.
</event>
<event>
 5   1  0.6181100E+00  0.7967354E+02  0.7957747E-01  0.1328445E+00
       -4   -1    0    0    0  501  0.00000000000E+00  0.00000000000E+00  0.43260468577E+02  0.43260468577E+02  0.00000000000E+00 0.  1.
        3   -1    0    0  501    0  0.00000000000E+00  0.00000000000E+00 -0.36684031096E+02  0.36684031096E+02  0.00000000000E+00 0. -1.
      -24    2    1    2    0    0  0.00000000000E+00  0.00000000000E+00  0.65764374809E+01  0.79944499674E+02  0.79673543276E+02 0.  0.
       11    1    3    3    0    0  0.15599672144E+02  0.21766691697E+02 -0.26304957622E+02  0.37537840027E+02  0.00000000000E+00 0. -1.
      -12    1    3    3    0    0 -0.15599672144E+02 -0.21766691697E+02  0.32881395103E+02  0.42406659646E+02  0.00000000000E+00 0.  1.
</event>
<event>
 5   1  0.6181100E+00  0.7997219E+02  0.7957747E-01  0.1327640E+00
        1   -1    0    0  501    0  0.00000000000E+00  0.00000000000E+00  0.47752389566E+03  0.47752389566E+03  0.00000000000E+00 0. -1.
       -2   -1    0    0    0  501  0.00000000000E+00  0.00000000000E+00 -0.33482884824E+01  0.33482884824E+01  0.00000000000E+00 0.  1.
      -24    2    1    2    0    0  0.00000000000E+00  0.00000000000E+00  0.47417560717E+03  0.48087218414E+03  0.79972189164E+02 0.  0.
       11    1    3    3    0    0 -0.23688032323E+02  0.29617862972E+02  0.16089887369E+03  0.16530816143E+03  0.00000000000E+00 0. -1.
      -12    1    3    3    0    0  0.23688032323E+02 -0.29617862972E+02  0.31327673349E+03  0.31556402271E+03  0.00000000000E+00 0.  1.
</event>
<event>
 5   1  0.6181100E+00  0.8060186E+02  0.7957747E-01  0.1325955E+00
       -2   -1    0    0    0  501  0.00000000000E+00  0.00000000000E+00  0.64659046870E+02  0.64659046870E+02  0.00000000000E+00 0.  1.
        1   -1    0    0  501    0  0.00000000000E+00  0.00000000000E+00 -0.25118910790E+02  0.25118910790E+02  0.00000000000E+00 0. -1.
      -24    2    1    2    0    0  0.00000000000E+00  0.00000000000E+00  0.39540136079E+02  0.89777957660E+02  0.80601856805E+02 0.  0.
       11    1    3    3    0    0 -0.38497957755E+02 -0.91639552888E+01  0.11280407534E+02  0.41149950449E+02  0.00000000000E+00 0. -1.
      -12    1    3    3    0    0  0.38497957755E+02  0.91639552888E+01  0.28259728545E+02  0.48628007211E+02  0.00000000000E+00 0.  1.
</event>
<event>
 6   2  0.6181100E+00  0.8821318E+02  0.7957747E-01  0.1306876E+00
        3   -1    0    0  502    0  0.00000000000E+00  0.00000000000E+00  0.22017939351E+03  0.22017939351E+03  0.00000000000E+00 0. -1.
       21   -1    0    0  501  502  0.00000000000E+00  0.00000000000E+00 -0.20925608473E+02  0.20925608473E+02  0.00000000000E+00 0. -1.
      -24    2    1    2    0    0 -0.26445955166E+02  0.25074266841E+02  0.17864659965E+03  0.19923898364E+03  0.80333415426E+02 0.  0.
       11    1    3    3    0    0  0.19514066230E+02  0.34452315898E+02  0.62603592595E+02  0.74074088974E+02  0.00000000000E+00 0. -1.
      -12    1    3    3    0    0 -0.45960021396E+02 -0.93780490569E+01  0.11604300705E+03  0.12516489466E+03  0.00000000000E+00 0.  1.
        4    1    1    2  501    0  0.26445955166E+02 -0.25074266841E+02  0.20607185392E+02  0.41866018345E+02  0.00000000000E+00 0. -1.
</event>
<event>
 4   3  0.6181100E+00  0.2044301E+03  0.7957747E-01  0.1152423E+00
       21   -1    0    0  503  502  0.00000000000E+00  0.00000000000E+00  0.21775289284E+03  0.21775289284E+03  0.00000000000E+00 0. -1.
       21   -1    0    0  501  503  0.00000000000E+00  0.00000000000E+00 -0.22585144366E+03  0.22585144366E+03  0.00000000000E+00 0.  1.
        6    1    1    2  501    0 -0.61793561946E+01 -0.10874040603E+03 -0.90017921334E+02  0.22337163318E+03  0.17300000000E+03 0.  1.
       -6    1    1    2    0  502  0.61793561946E+01  0.10874040603E+03  0.81919370520E+02  0.22023270332E+03  0.17300000000E+03 0. -1.
</event>
<event>
 5   1  0.6181100E+00  0.7960746E+02  0.7957747E-01  0.1328623E+00
       -2   -1    0    0    0  501  0.00000000000E+00  0.00000000000E+00  0.13729189593E+03  0.13729189593E+03  0.00000000000E+00 0.  1.
        1   -1    0    0  501    0  0.00000000000E+00  0.00000000000E+00 -0.11539914787E+02  0.11539914787E+02  0.00000000000E+00 0. -1.
      -24    2    1    2    0    0  0.00000000000E+00  0.00000000000E+00  0.12575198114E+03  0.14883181072E+03  0.79607456435E+02 0.  0.
       11    1    3    3    0    0  0.37104468935E+02 -0.13353659117E+02  0.52760426089E+02  0.65868994131E+02  0.00000000000E+00 0. -1.
      -12    1    3    3    0    0 -0.37104468935E+02  0.13353659117E+02  0.72991555055E+02  0.82962816587E+02  0.00000000000E+00 0.  1.
</event>
<event>
 5   1  0.6181100E+00  0.8148607E+02  0.7957747E-01  0.1323618E+00
       -2   -1    0    0    0  501  0.00000000000E+00  0.00000000000E+00  0.18629459911E+03  0.18629459911E+03  0.00000000000E+00 0.  1.
        1   -1    0    0  501    0  0.00000000000E+00  0.00000000000E+00 -0.89105912621E+01  0.89105912621E+01  0.00000000000E+00 0. -1.
      -24    2    1    2    0    0  0.00000000000E+00  0.00000000000E+00  0.17738400785E+03  0.19520519037E+03  0.81486073092E+02 0.  0.
       11    1    3    3    0    0 -0.17720812029E+02  0.17410895635E+02  0.11332365620E+02  0.27305475208E+02  0.00000000000E+00 0. -1.
      -12    1    3    3    0    0  0.17720812029E+02 -0.17410895635E+02  0.16605164223E+03  0.16789971516E+03  0.00000000000E+00 0.  1.
</event>
<event>
 6   2  0.6181100E+00  0.8987326E+02  0.7957747E-01  0.1303002E+00
       -2   -1    0    0    0  501  0.00000000000E+00  0.00000000000E+00  0.68855931480E+02  0.68855931480E+02  0.00000000000E+00 0.  1.
       21   -1    0    0  501  502  0.00000000000E+00  0.00000000000E+00 -0.76028447507E+02  0.76028447507E+02  0.00000000000E+00 0.  1.
      -24    2    1    2    0    0 -0.18485816869E+02 -0.43081840211E+02 -0.27209009756E+02  0.93901720541E+02  0.76677457752E+02 0.  0.
       11    1    3    3    0    0 -0.10866791070E+02  0.12333876224E+02  0.16213579272E+02  0.23088780904E+02  0.00000000000E+00 0. -1.
      -12    1    3    3    0    0 -0.76190257998E+01 -0.55415716435E+02 -0.43422589028E+02  0.70812939637E+02  0.00000000000E+00 0.  1.
       -1    1    1    2    0  502  0.18485816869E+02  0.43081840211E+02  0.20036493730E+02  0.50982658446E+02  0.00000000000E+00 0.  1.
</event>
<event>
 5   1  0.6181100E+00  0.8089817E+02  0.7957747E-01  0.1325168E+00
       -2   -1    0    0    0  501  0.00000000000E+00  0.00000000000E+00  0.37721374776E+01  0.37721374776E+01  0.00000000000E+00 0.  1.
        1   -1    0    0  501    0  0.00000000000E+00  0.00000000000E+00 -0.43374038956E+03  0.43374038956E+03  0.00000000000E+00 0. -1.
      -24    2    1    2    0    0  0.00000000000E+00  0.00000000000E+00 -0.42996825209E+03  0.43751252704E+03  0.80898167569E+02 0.  0.
       11    1    3    3    0    0 -0.36260813493E+02  0.10204935536E+02 -0.13529064466E+03  0.14043698173E+03  0.00000000000E+00 0. -1.
      -12    1    3    3    0    0  0.36260813493E+02 -0.10204935536E+02 -0.29467760743E+03  0.29707554531E+03  0.00000000000E+00 0.  1.
</event>
<event>
 4   3  0.6181100E+00  0.1825096E+03  0.7957747E-01  0.1171101E+00
       21   -1    0    0  503  502  0.00000000000E+00  0.00000000000E+00  0.47268221992E+02  0.47268221992E+02  0.00000000000E+00 0.  1.
       21   -1    0    0  501  503  0.00000000000E+00  0.00000000000E+00 -0.71302906938E+03  0.71302906938E+03  0.00000000000E+00 0.  1.
        6    1    1    2  501    0  0.57839651430E+02 -0.59427010897E+01 -0.29178489186E+03  0.34416299059E+03  0.17300000000E+03 0.  1.
       -6    1    1    2    0  502 -0.57839651430E+02  0.59427010897E+01 -0.37397595553E+03  0.41613430078E+03  0.17300000000E+03 0.  1.
</event>
<event>
 5   1  0.6181100E+00  0.5507578E+02  0.7957747E-01  0.1413014E+00
        3   -1    0    0  501    0  0.00000000000E+00  0.00000000000E+00  0.13558706528E+02  0.13558706528E+02  0.00000000000E+00 0. -1.
       -4   -1    0    0    0  501  0.00000000000E+00  0.00000000000E+00 -0.55929766409E+02  0.55929766409E+02  0.00000000000E+00 0.  1.
      -24    2    1    2    0    0  0.00000000000E+00  0.00000000000E+00 -0.42371059881E+02  0.69488472937E+02  0.55075776487E+02 0.  0.
       11    1    3    3    0    0  0.11599582946E+02  0.15567870738E+02  0.34554226786E+01  0.19719251247E+02  0.00000000000E+00 0. -1.
      -12    1    3    3    0    0 -0.11599582946E+02 -0.15567870738E+02 -0.45826482560E+02  0.49769221690E+02  0.00000000000E+00 0.  1.
</event>
<event>
 4   3  0.6181100E+00  0.1743623E+03  0.7957747E-01  0.1178794E+00
       21   -1    0    0  501  502  0.00000000000E+00  0.00000000000E+00  0.13086889055E+04  0.13086889055E+04  0.00000000000E+00 0.  1.
       21   -1    0    0  502  503  0.00000000000E+00  0.00000000000E+00 -0.23370668396E+02  0.23370668396E+02  0.00000000000E+00 0.  1.
        6    1    1    2  501    0 -0.19137170287E+02  0.10342642258E+02  0.69414027094E+03  0.71570449019E+03  0.17300000000E+03 0.  1.
       -6    1    1    2    0  503  0.19137170287E+02 -0.10342642258E+02  0.59117796621E+03  0.61635508375E+03  0.17300000000E+03 0.  1.
</event>
<event>
 5   1  0.6181100E+00  0.7370080E+02  0.7957747E-01  0.1345439E+00
        3   -1    0    0  501    0  0.00000000000E+00  0.00000000000E+00  0.10392858654E+03  0.10392858654E+03  0.00000000000E+00 0. -1.
       -4   -1    0    0    0  501  0.00000000000E+00  0.00000000000E+00 -0.13066202494E+02  0.13066202494E+02  0.00000000000E+00 0.  1.
      -24    2    1    2    0    0  0.00000000000E+00  0.00000000000E+00  0.90862384043E+02  0.11699478903E+03  0.73700799361E+02 0.  0.
       11    1    3    3    0    0  0.35792807792E+02 -0.80615949468E+01  0.50892860125E+02  0.62739123475E+02  0.00000000000E+00 0. -1.
      -12    1    3    3    0    0 -0.35792807792E+02  0.80615949468E+01  0.39969523918E+02  0.54255665556E+02  0.00000000000E+00 0.  1.
</event>
<event>
 6   2  0.6181100E+00  0.8877392E+02  0.7957747E-01  0.1305556E+00
       21   -1    0    0  501  502  0.00000000000E+00  0.00000000000E+00  0.46893131457E+02  0.46893131457E+02  0.00000000000E+00 0.  1.
       -2   -1    0    0    0  501  0.00000000000E+00  0.00000000000E+00 -0.12566575474E+03  0.12566575474E+03  0.00000000000E+00 0.  1.
      -24    2    1    2    0    0 -0.33883472558E+02 -0.60952633048E+01 -0.98724471762E+02  0.13276795500E+03  0.81826441958E+02 0.  0.
       11    1    3    3    0    0  0.28260860248E+01  0.10606871183E+02  0.11197735535E+02  0.15680617323E+02  0.00000000000E+00 0. -1.
      -12    1    3    3    0    0 -0.36709558583E+02 -0.16702134488E+02 -0.10992220730E+03  0.11708733768E+03  0.00000000000E+00 0.  1.
       -1    1    1    2    0  502  0.33883472558E+02  0.60952633048E+01  0.19951848480E+02  0.39790931192E+02  0.00000000000E+00 0.  1.
</event>
<event>
 6   2  0.6181100E+00  0.8548366E+02  0.7957747E-01  0.1313459E+00
       21   -1    0    0  501  502  0.00000000000E+00  0.00000000000E+00  0.20951736015E+03  0.20951736015E+03  0.00000000000E+00 0.  1.
       -2   -1    0    0    0  501  0.00000000000E+00  0.00000000000E+00 -0.10280360638E+03  0.10280360638E+03  0.00000000000E+00 0.  1.
      -24    2    1    2    0    0  0.28254883104E+02  0.29421553953E+02 -0.82475461539E+02  0.11878408258E+03  0.75123167280E+02 0.  0.
       11    1    3    3    0    0  0.47941655092E+01  0.25997291335E+02  0.60664230467E+01  0.27122770291E+02  0.00000000000E+00 0. -1.
      -12    1    3    3    0    0  0.23460717595E+02  0.34242626177E+01 -0.88541884586E+02  0.91661312289E+02  0.00000000000E+00 0.  1.
       -1    1    1    2    0  502 -0.28254883104E+02 -0.29421553953E+02  0.18918921532E+03  0.19353688395E+03  0.00000000000E+00 0.  1.
</event>
<event>
 5   1  0.6181100E+00  0.8524246E+02  0.7957747E-01  0.1314054E+00
       -2   -1    0    0    0  501  0.00000000000E+00  0.00000000000E+00  0.15366682846E+02  0.15366682846E+02  0.00000000000E+00 0.  1.
        1   -1    0    0  501    0  0.00000000000E+00  0.00000000000E+00 -0.11821479353E+03  0.11821479353E+03  0.00000000000E+00 0. -1.
      -24    2    1    2    0    0  0.00000000000E+00  0.00000000000E+00 -0.10284811069E+03  0.13358147638E+03  0.85242459841E+02 0.  0.
       11    1    3    3    0    0 -0.26590968157E+02  0.12398995954E+02 -0.99870672012E+02  0.10409114187E+03  0.00000000000E+00 0. -1.
      -12    1    3    3    0    0  0.26590968157E+02 -0.12398995954E+02 -0.29774386737E+01  0.29490334505E+02  0.00000000000E+00 0.  1.
</event>
<event>
 5   1  0.6181100E+00  0.8098735E+02  0.7957747E-01  0.1324932E+00
       -4   -1    0    0    0  501  0.00000000000E+00  0.00000000000E+00  0.23031682086E+03  0.23031682086E+03  0.00000000000E+00 0.  1.
        3   -1    0    0  501    0  0.00000000000E+00  0.00000000000E+00 -0.71194880296E+01  0.71194880296E+01  0.00000000000E+00 0. -1.
      -24    2    1    2    0    0  0.00000000000E+00  0.00000000000E+00  0.22319733283E+03  0.23743630889E+03  0.80987353313E+02 0.  0.
       11    1    3    3    0    0  0.22736342805E+02  0.16725975497E+01  0.13482913706E+02  0.26486370621E+02  0.00000000000E+00 0. -1.
      -12    1    3    3    0    0 -0.22736342805E+02 -0.16725975497E+01  0.20971441913E+03  0.21094993827E+03  0.00000000000E+00 0.  1.
</event>
<event>
 4   3  0.6181100E+00  0.1835244E+03  0.7957747E-01  0.1170174E+00
       -2   -1    0    0    0  501  0.00000000000E+00  0.00000000000E+00  0.28235327911E+02  0.28235327911E+02  0.00000000000E+00 0. -1.
        2   -1    0    0  502    0  0.00000000000E+00  0.00000000000E+00 -0.11929895686E+04  0.11929895686E+04  0.00000000000E+00 0.  1.
        6    1    1    2  502    0  0.38132690925E+02 -0.47938393808E+02 -0.57637014037E+03  0.60488323702E+03  0.17300000000E+03 0. -1.
       -6    1    1    2    0  501 -0.38132690925E+02  0.47938393808E+02 -0.58838410036E+03  0.61634165953E+03  0.17300000000E+03 0.  1.
</event>
<event>
 6   2  0.6181100E+00  0.1667823E+03  0.7957747E-01  0.1186378E+00
       21   -1    0    0  501  502  0.00000000000E+00  0.00000000000E+00  0.98264285869E+02  0.98264285869E+02  0.00000000000E+00 0. -1.
        1   -1    0    0  502    0  0.00000000000E+00  0.00000000000E+00 -0.32618965344E+03  0.32618965344E+03  0.00000000000E+00 0. -1.
      -24    2    1    2    0    0  0.11529131478E+03  0.89980085527E+02 -0.22254696776E+03  0.27810698772E+03  0.80173815562E+02 0.  0.
       11    1    3    3    0    0  0.10967249613E+03  0.40577761442E+02 -0.16097319731E+03  0.19896477423E+03  0.00000000000E+00 0. -1.
      -12    1    3    3    0    0  0.56188186445E+01  0.49402324085E+02 -0.61573770452E+02  0.79142213487E+02  0.00000000000E+00 0.  1.
        2    1    1    2  501    0 -0.11529131478E+03 -0.89980085527E+02 -0.53783998054E+01  0.14634695159E+03  0.00000000000E+00 0. -1.
</event>
<event>
 5   1  0.6181100E+00  0.8055298E+02  0.7957747E-01  0.1326085E+00
       -2   -1    0    0    0  501  0.00000000000E+00  0.00000000000E+00  0.57521523419E+02  0.57521523419E+02  0.00000000000E+00 0.  1.
        1   -1    0    0  501    0  0.00000000000E+00  0.00000000000E+00 -0.28201544620E+02  0.28201544620E+02  0.00000000000E+00 0. -1.
      -24    2    1    2    0    0  0.00000000000E+00  0.00000000000E+00  0.29319978799E+02  0.85723068038E+02  0.80552984036E+02 0.  0.
       11    1    3    3    0    0  0.20779349224E+02 -0.33289727477E+01 -0.21885534081E+02  0.30361818387E+02  0.00000000000E+00 0. -1.
      -12    1    3    3    0    0 -0.20779349224E+02  0.33289727477E+01  0.51205512880E+02  0.55361249652E+02  0.00000000000E+00 0.  1.
</event>
<event>
 5   1  0.6181100E+00  0.8179627E+02  0.7957747E-01  0.1322807E+00
        3   -1    0    0  501    0  0.00000000000E+00  0.00000000000E+00  0.18706810584E+02  0.18706810584E+02  0.00000000000E+00 0. -1.
       -4   -1    0    0    0  501  0.00000000000E+00  0.00000000000E+00 -0.89414353528E+02  0.89414353528E+02  0.00000000000E+00 0.  1.
      -24    2    1    2    0    0  0.00000000000E+00  0.00000000000E+00 -0.70707542944E+02  0.10812116411E+03  0.81796268251E+02 0.  0.
       11    1    3    3    0    0 -0.32494836842E+02  0.47987216085E+01 -0.31455817883E+01  0.32997527714E+02  0.00000000000E+00 0. -1.
      -12    1    3    3    0    0  0.32494836842E+02 -0.47987216085E+01 -0.67561961155E+02  0.75123636398E+02  0.00000000000E+00 0.  1.
</event>
<event>
 5   1  0.6181100E+00  0.8124800E+02  0.7957747E-01  0.1324244E+00
        1   -1    0    0  501    0  0.00000000000E+00  0.00000000000E+00  0.14104499265E+02  0.14104499265E+02  0.00000000000E+00 0. -1.
       -2   -1    0    0    0  501  0.00000000000E+00  0.00000000000E+00 -0.11700588318E+03  0.11700588318E+03  0.00000000000E+00 0.  1.
      -24    2    1    2    0    0  0.00000000000E+00  0.00000000000E+00 -0.10290138392E+03  0.13111038245E+03  0.81248000426E+02 0.  0.
       11    1    3    3    0    0  0.21926844170E+02 -0.10308840051E+02  0.11682661420E+01  0.24257442656E+02  0.00000000000E+00 0. -1.
      -12    1    3    3    0    0 -0.21926844170E+02  0.10308840051E+02 -0.10406965006E+03  0.10685293979E+03  0.00000000000E+00 0.  1.
</event>
<event>
 6   2  0.6181100E+00  0.9021994E+02  0.7957747E-01  0.1302205E+00
       21   -1    0    0  501  502  0.00000000000E+00  0.00000000000E+00  0.52393569560E+02  0.52393569560E+02  0.00000000000E+00 0. -1.
        3   -1    0    0  502    0  0.00000000000E+00  0.00000000000E+00 -0.67970736394E+03  0.67970736394E+03  0.00000000000E+00 0. -1.
      -24    2    1    2    0    0  0.37649363303E+02  0.12500153014E+02 -0.66870806057E+03  0.67476670588E+03  0.81030295027E+02 0.  0.
       11    1    3    3    0    0  0.16901224942E+02  0.39534628450E+02 -0.18807619983E+03  0.19292821254E+03  0.00000000000E+00 0. -1.
      -12    1    3    3    0    0  0.20748138361E+02 -0.27034475436E+02 -0.48063186074E+03  0.48183849334E+03  0.00000000000E+00 0.  1.
        4    1    1    2  501    0 -0.37649363303E+02 -0.12500153014E+02  0.41394266193E+02  0.57334227615E+02  0.00000000000E+00 0. -1.
</event>
<event>
 6   2  0.6181100E+00  0.8476497E+02  0.7957747E-01  0.1315238E+00
       21   -1    0    0  501  502  0.00000000000E+00  0.00000000000E+00  0.33622759132E+01  0.33622759132E+01  0.00000000000E+00 0. -1.
       -2   -1    0    0    0  501  0.00000000000E+00  0.00000000000E+00 -0.10091493477E+04  0.10091493477E+04  0.00000000000E+00 0.  1.
      -24    2    1    2    0    0  0.17159168241E+02  0.14843843620E+02 -0.58453894975E+03  0.59065293036E+03  0.81672049245E+02 0.  0.
       11    1    3    3    0    0  0.40417159508E+02 -0.82675374029E+01 -0.17471473756E+03  0.17951918694E+03  0.00000000000E+00 0. -1.
      -12    1    3    3    0    0 -0.23257991267E+02  0.23111381023E+02 -0.40982421219E+03  0.41113374343E+03  0.00000000000E+00 0.  1.
       -1    1    1    2    0  502 -0.17159168241E+02 -0.14843843620E+02 -0.42124812208E+03  0.42185869329E+03  0.00000000000E+00 0.  1.
</event>
<event>
 5   1  0.6181100E+00  0.7942713E+02  0.7957747E-01  0.1329112E+00
        1   -1    0    0  501    0  0.00000000000E+00  0.00000000000E+00  0.52774594092E+02  0.52774594092E+02  0.00000000000E+00 0. -1.
       -2   -1    0    0    0  501  0.00000000000E+00  0.00000000000E+00 -0.29884968317E+02  0.29884968317E+02  0.00000000000E+00 0.  1.
      -24    2    1    2    0    0  0.00000000000E+00  0.00000000000E+00  0.22889625775E+02  0.82659562409E+02  0.79427125654E+02 0.  0.
       11    1    3    3    0    0 -0.94648341623E+01  0.31590231217E+02 -0.11583560735E+02  0.34952892203E+02  0.00000000000E+00 0. -1.
      -12    1    3    3    0    0  0.94648341623E+01 -0.31590231217E+02  0.34473186510E+02  0.47706670207E+02  0.00000000000E+00 0.  1.
</event>
<event>
 5   1  0.6181100E+00  0.8038848E+02  0.7957747E-01  0.1326524E+00
       -4   -1    0    0    0  501  0.00000000000E+00  0.00000000000E+00  0.13772121487E+02  0.13772121487E+02  0.00000000000E+00 0.  1.
        3   -1    0    0  501    0  0.00000000000E+00  0.00000000000E+00 -0.11730778565E+03  0.11730778565E+03  0.00000000000E+00 0. -1.
      -24    2    1    2    0    0  0.00000000000E+00  0.00000000000E+00 -0.10353566416E+03  0.13107990714E+03  0.80388483635E+02 0.  0.
       11    1    3    3    0    0  0.84796219472E+01  0.28879325301E+02 -0.95205523415E+02  0.99849942949E+02  0.00000000000E+00 0. -1.
      -12    1    3    3    0    0 -0.84796219472E+01 -0.28879325301E+02 -0.83301407482E+01  0.31229964187E+02  0.00000000000E+00 0.  1.
</event>
<event>
 5   1  0.6181100E+00  0.8112201E+02  0.7957747E-01  0.1324576E+00
       -2   -1    0    0    0  501  0.00000000000E+00  0.00000000000E+00  0.89687207567E+01  0.89687207567E+01  0.00000000000E+00 0.  1.
        1   -1    0    0  501    0  0.00000000000E+00  0.00000000000E+00 -0.18343697961E+03  0.18343697961E+03  0.00000000000E+00 0. -1.
      -24    2    1    2    0    0  0.00000000000E+00  0.00000000000E+00 -0.17446825885E+03  0.19240570037E+03  0.81122008027E+02 0.  0.
       11    1    3    3    0    0 -0.14022375719E+02 -0.37770134138E+02 -0.76113166119E+02  0.86118662962E+02  0.00000000000E+00 0. -1.
      -12    1    3    3    0    0  0.14022375719E+02  0.37770134138E+02 -0.98355092735E+02  0.10628703741E+03  0.00000000000E+00 0.  1.
</event>
<event>
 6   2  0.6181100E+00  0.8564374E+02  0.7957747E-01  0.1313065E+00
       -2   -1    0    0    0  501  0.00000000000E+00  0.00000000000E+00  0.66304989123E+02  0.66304989123E+02  0.00000000000E+00 0.  1.
        1   -1    0    0  502    0  0.00000000000E+00  0.00000000000E+00 -0.24685288228E+03  0.24685288228E+03  0.00000000000E+00 0. -1.
      -24    2    1    2    0    0 -0.39646858370E+01  0.29702346100E+02  0.37188353986E+02  0.93369287947E+02  0.80230307003E+02 0.  0.
       11    1    3    3    0    0  0.27367954035E+00  0.28156275005E+02 -0.20924779459E+02  0.35081292993E+02  0.00000000000E+00 0. -1.
      -12    1    3    3    0    0 -0.42383653773E+01  0.15460710954E+01  0.58113133445E+02  0.58287994954E+02  0.00000000000E+00 0.  1.
       21    1    1    2  502  501  0.39646858370E+01 -0.29702346100E+02 -0.21773624714E+03  0.21978858346E+03  0.00000000000E+00 0. -1.
</event>
<event>
 6   2  0.6181100E+00  0.8133525E+02  0.7957747E-01  0.1324015E+00
       -2   -1    0    0    0  501  0.00000000000E+00  0.00000000000E+00  0.18717301223E+02  0.18717301223E+02  0.00000000000E+00 0.  1.
        1   -1    0    0  502    0  0.00000000000E+00  0.00000000000E+00 -0.27406553270E+03  0.27406553270E+03  0.00000000000E+00 0. -1.
      -24    2    1    2    0    0  0.28440089495E+02  0.43710678648E+01 -0.25079064953E+03  0.26365009499E+03  0.76075474188E+02 0.  0.
       11    1    3    3    0    0  0.53050089020E+02 -0.81490789087E+01 -0.16997860015E+03  0.17825106996E+03  0.00000000000E+00 0. -1.
      -12    1    3    3    0    0 -0.24609999525E+02  0.12520146773E+02 -0.80812049375E+02  0.85399025030E+02  0.00000000000E+00 0.  1.
       21    1    1    2  502  501 -0.28440089495E+02 -0.43710678648E+01 -0.45575819544E+01  0.29132738938E+02  0.00000000000E+00 0.  1.
</event>
<event>
 5   1  0.6181100E+00  0.7978387E+02  0.7957747E-01  0.1328147E+00
       -4   -1    0    0    0  501  0.00000000000E+00  0.00000000000E+00  0.45871449122E+02  0.45871449122E+02  0.00000000000E+00 0.  1.
        3   -1    0    0  501    0  0.00000000000E+00  0.00000000000E+00 -0.34691876847E+02  0.34691876847E+02  0.00000000000E+00 0. -1.
      -24    2    1    2    0    0  0.00000000000E+00  0.00000000000E+00  0.11179572276E+02  0.80563325969E+02  0.79783874654E+02 0.  0.
       11    1    3    3    0    0  0.38655742240E+02  0.87839922468E+01  0.10805420669E+01  0.39655926405E+02  0.00000000000E+00 0. -1.
      -12    1    3    3    0    0 -0.38655742240E+02 -0.87839922468E+01  0.10099030209E+02  0.40907399564E+02  0.00000000000E+00 0.  1.
</event>
<event>
 5   1  0.6181100E+00  0.8320370E+02  0.7957747E-01  0.1319174E+00
       -4   -1    0    0    0  501  0.00000000000E+00  0.00000000000E+00  0.43589623812E+02  0.43589623812E+02  0.00000000000E+00 0.  1.
        3   -1    0    0  501    0  0.00000000000E+00  0.00000000000E+00 -0.39704723220E+02  0.39704723220E+02  0.00000000000E+00 0. -1.
      -24    2    1    2    0    0  0.00000000000E+00  0.00000000000E+00  0.38849005922E+01  0.83294347032E+02  0.83203700608E+02 0.  0.
       11    1    3    3    0    0 -0.14259027599E+02 -0.16951220156E+02 -0.33310260772E+02  0.40002964959E+02  0.00000000000E+00 0. -1.
      -12    1    3    3    0    0  0.14259027599E+02  0.16951220156E+02  0.37195161364E+02  0.43291382072E+02  0.00000000000E+00 0.  1.
</event>
<event>
 5   1  0.6181100E+00  0.8102409E+02  0.7957747E-01  0.1324835E+00
        1   -1    0    0  501    0  0.00000000000E+00  0.00000000000E+00  0.16053542107E+02  0.16053542107E+02  0.00000000000E+00 0. -1.
       -2   -1    0    0    0  501  0.00000000000E+00  0.00000000000E+00 -0.10223448611E+03  0.10223448611E+03  0.00000000000E+00 0.  1.
      -24    2    1    2    0    0  0.00000000000E+00  0.00000000000E+00 -0.86180944007E+02  0.11828802822E+03  0.81024085989E+02 0.  0.
       11    1    3    3    0    0  0.18679659064E+02 -0.62007790886E+01  0.86045594453E+01  0.21480637032E+02  0.00000000000E+00 0. -1.
      -12    1    3    3    0    0 -0.18679659064E+02  0.62007790886E+01 -0.94785503452E+02  0.96807391188E+02  0.00000000000E+00 0.  1.
</event>
<event>
 6   2  0.6181100E+00  0.8450583E+02  0.7957747E-01  0.1315885E+00
        1   -1    0    0  502    0  0.00000000000E+00  0.00000000000E+00  0.82338124846E+03  0.82338124846E+03  0.00000000000E+00 0. -1.
       21   -1    0    0  501  502  0.00000000000E+00  0.00000000000E+00 -0.43405838649E+01  0.43405838649E+01  0.00000000000E+00 0.  1.
      -24    2    1    2    0    0 -0.23507076640E+02  0.14281386110E+02  0.46515525284E+03  0.47276912380E+03  0.79904283525E+02 0.  0.
       11    1    3    3    0    0  0.22894187968E+02  0.27775732520E+02  0.21428093862E+03  0.21728312363E+03  0.00000000000E+00 0. -1.
      -12    1    3    3    0    0 -0.46401264608E+02 -0.13494346411E+02  0.25087431422E+03  0.25548600016E+03  0.00000000000E+00 0.  1.
        2    1    1    2  501    0  0.23507076640E+02 -0.14281386110E+02  0.35388541176E+03  0.35495270853E+03  0.00000000000E+00 0. -1.
</event>
<event>
 5   1  0.6181100E+00  0.8086698E+02  0.7957747E-01  0.1325251E+00
       -2   -1    0    0    0  501  0.00000000000E+00  0.00000000000E+00  0.33777651495E+03  0.33777651495E+03  0.00000000000E+00 0.  1.
        1   -1    0    0  501    0  0.00000000000E+00  0.00000000000E+00 -0.48400853024E+01  0.48400853024E+01  0.00000000000E+00 0. -1.
      -24    2    1    2    0    0  0.00000000000E+00  0.00000000000E+00  0.33293642964E+03  0.34261660025E+03  0.80866980789E+02 0.  0.
       11    1    3    3    0    0 -0.37610476061E+02  0.51866359538E+01  0.10754510425E+03  0.11404998268E+03  0.00000000000E+00 0. -1.
      -12    1    3    3    0    0  0.37610476061E+02 -0.51866359538E+01  0.22539132539E+03  0.22856661757E+03  0.00000000000E+00 0.  1.
</event>
<event>
 5   1  0.6181100E+00  0.7964216E+02  0.7957747E-01  0.1328530E+00
       -4   -1    0    0    0  501  0.00000000000E+00  0.00000000000E+00  0.46444354933E+03  0.46444354933E+03  0.00000000000E+00 0.  1.
        3   -1    0    0  501    0  0.00000000000E+00  0.00000000000E+00 -0.34142330463E+01  0.34142330463E+01  0.00000000000E+00 0. -1.
      -24    2    1    2    0    0  0.00000000000E+00  0.00000000000E+00  0.46102931628E+03  0.46785778237E+03  0.79642162559E+02 0.  0.
       11    1    3    3    0    0 -0.14221483445E+02  0.43471744059E+01  0.13510166559E+02  0.20091618082E+02  0.00000000000E+00 0. -1.
      -12    1    3    3    0    0  0.14221483445E+02 -0.43471744059E+01  0.44751914972E+03  0.44776616429E+03  0.00000000000E+00 0.  1.
</event>
<event>
 6   2  0.6181100E+00  0.8836393E+02  0.7957747E-01  0.1306520E+00
       -4   -1    0    0    0  501  0.00000000000E+00  0.00000000000E+00  0.17165748582E+03  0.17165748582E+03  0.00000000000E+00 0.  1.
       21   -1    0    0  501  502  0.00000000000E+00  0.00000000000E+00 -0.39965132031E+02  0.39965132031E+02  0.00000000000E+00 0. -1.
      -24    2    1    2    0    0  0.24697745283E+02 -0.27676710147E+02  0.14698356786E+03  0.17150030318E+03  0.80201034058E+02 0.  0.
       11    1    3    3    0    0  0.90736853767E+00 -0.36825315607E+02  0.19864915810E+02  0.41851428499E+02  0.00000000000E+00 0. -1.
      -12    1    3    3    0    0  0.23790376745E+02  0.91486054606E+01  0.12711865205E+03  0.12964887468E+03  0.00000000000E+00 0.  1.
       -3    1    1    2    0  502 -0.24697745283E+02  0.27676710147E+02 -0.15291214071E+02  0.40122314669E+02  0.00000000000E+00 0.  1.
</event>
<event>
 6   2  0.6181100E+00  0.8331655E+02  0.7957747E-01  0.1318886E+00
        1   -1    0    0  502    0  0.00000000000E+00  0.00000000000E+00  0.50823635096E+03  0.50823635096E+03  0.00000000000E+00 0. -1.
       21   -1    0    0  501  502  0.00000000000E+00  0.00000000000E+00 -0.72833450059E+01  0.72833450059E+01  0.00000000000E+00 0. -1.
      -24    2    1    2    0    0 -0.26255702053E+02  0.56383806404E+00  0.45522889538E+03  0.46279044326E+03  0.79069383296E+02 0.  0.
       11    1    3    3    0    0 -0.54345867007E+02  0.53145283420E+01  0.28272720179E+03  0.28795205869E+03  0.00000000000E+00 0. -1.
      -12    1    3    3    0    0  0.28090164954E+02 -0.47506902779E+01  0.17250169359E+03  0.17483838457E+03  0.00000000000E+00 0.  1.
        2    1    1    2  501    0  0.26255702053E+02 -0.56383806404E+00  0.45724110567E+02  0.52729252704E+02  0.00000000000E+00 0. -1.
</event>
<event>
 6   2  0.6181100E+00  0.8273011E+02  0.7957747E-01  0.1320387E+00
       21   -1    0    0  501  502  0.00000000000E+00  0.00000000000E+00  0.13582993123E+03  0.13582993123E+03  0.00000000000E+00 0. -1.
       -4   -1    0    0    0  501  0.00000000000E+00  0.00000000000E+00 -0.26134756121E+02  0.26134756121E+02  0.00000000000E+00 0.  1.
      -24    2    1    2    0    0  0.20339775794E+02 -0.16832681196E+00  0.45062052411E+02  0.94206474837E+02  0.80190626139E+02 0.  0.
       11    1    3    3    0    0  0.26062311618E+02 -0.36802274224E+02  0.19274405737E+02  0.49042371389E+02  0.00000000000E+00 0. -1.
      -12    1    3    3    0    0 -0.57225358243E+01  0.36633947412E+02  0.25787646674E+02  0.45164103448E+02  0.00000000000E+00 0.  1.
       -3    1    1    2    0  502 -0.20339775794E+02  0.16832681196E+00  0.64633122700E+02  0.67758212515E+02  0.00000000000E+00 0.  1.
</event>
<event>
 5   1  0.6181100E+00  0.8122701E+02  0.7957747E-01  0.1324300E+00
       -2   -1    0    0    0  501  0.00000000000E+00  0.00000000000E+00  0.95174311645E+01  0.95174311645E+01  0.00000000000E+00 0.  1.
        1   -1    0    0  501    0  0.00000000000E+00  0.00000000000E+00 -0.17330903496E+03  0.17330903496E+03  0.00000000000E+00 0. -1.
      -24    2    1    2    0    0  0.00000000000E+00  0.00000000000E+00 -0.16379160379E+03  0.18282646612E+03  0.81227010542E+02 0.  0.
       11    1    3    3    0    0 -0.56755765165E+01  0.28543042901E+02 -0.14565924515E+03  0.14853798560E+03  0.00000000000E+00 0. -1.
      -12    1    3    3    0    0  0.56755765165E+01 -0.28543042901E+02 -0.18132358641E+02  0.34288480525E+02  0.00000000000E+00 0.  1.
</event>
<event>
 5   1  0.6181100E+00  0.8310853E+02  0.7957747E-01  0.1319417E+00
        1   -1    0    0  501    0  0.00000000000E+00  0.00000000000E+00  0.41075096187E+01  0.41075096187E+01  0.00000000000E+00 0. -1.
       -2   -1    0    0    0  501  0.00000000000E+00  0.00000000000E+00 -0.42039023989E+03  0.42039023989E+03  0.00000000000E+00 0.  1.
      -24    2    1    2    0    0  0.00000000000E+00  0.00000000000E+00 -0.41628273028E+03  0.42449774951E+03  0.83108530344E+02 0.  0.
       11    1    3    3    0    0 -0.11667245893E+02  0.38544003498E+02 -0.15580444701E+03  0.16092479778E+03  0.00000000000E+00 0. -1.
      -12    1    3    3    0    0  0.11667245893E+02 -0.38544003498E+02 -0.26047828327E+03  0.26357295174E+03  0.00000000000E+00 0.  1.
</event>
<event>
 5   1  0.6181100E+00  0.8094158E+02  0.7957747E-01  0.1325053E+00
        1   -1    0    0  501    0  0.00000000000E+00  0.00000000000E+00  0.54907263804E+01  0.54907263804E+01  0.00000000000E+00 0. -1.
       -2   -1    0    0    0  501  0.00000000000E+00  0.00000000000E+00 -0.29830022453E+03  0.29830022453E+03  0.00000000000E+00 0.  1.
      -24    2    1    2    0    0  0.00000000000E+00  0.00000000000E+00 -0.29280949815E+03  0.30379095091E+03  0.80941581703E+02 0.  0.
       11    1    3    3    0    0 -0.19116991799E+02 -0.28341270869E+01 -0.12946865736E+02  0.23261835357E+02  0.00000000000E+00 0. -1.
      -12    1    3    3    0    0  0.19116991799E+02  0.28341270869E+01 -0.27986263242E+03  0.28052911556E+03  0.00000000000E+00 0.  1.
</event>
<event>
 5   1  0.6181100E+00  0.7942551E+02  0.7957747E-01  0.1329116E+00
       -2   -1    0    0    0  501  0.00000000000E+00  0.00000000000E+00  0.47165995331E+02  0.47165995331E+02  0.00000000000E+00 0.  1.
        1   -1    0    0  501    0  0.00000000000E+00  0.00000000000E+00 -0.33437290712E+02  0.33437290712E+02  0.00000000000E+00 0. -1.
      -24    2    1    2    0    0  0.00000000000E+00  0.00000000000E+00  0.13728704619E+02  0.80603286043E+02  0.79425514732E+02 0.  0.
       11    1    3    3    0    0  0.22841905555E+02 -0.28904614413E+02 -0.81836678912E+01  0.37738598330E+02  0.00000000000E+00 0. -1.
      -12    1    3    3    0    0 -0.22841905555E+02  0.28904614413E+02  0.21912372510E+02  0.42864687713E+02  0.00000000000E+00 0.  1.
</event>
<event>
 5   1  0.6181100E+00  0.8047188E+02  0.7957747E-01  0.1326301E+00
        1   -1    0    0  501    0  0.00000000000E+00  0.00000000000E+00  0.28753459348E+02  0.28753459348E+02  0.00000000000E+00 0. -1.
       -2   -1    0    0    0  501  0.00000000000E+00  0.00000000000E+00 -0.56303862774E+02  0.56303862774E+02  0.00000000000E+00 0.  1.
      -24    2    1    2    0    0  0.00000000000E+00  0.00000000000E+00 -0.27550403426E+02  0.85057322122E+02  0.80471879049E+02 0.  0.
       11    1    3    3    0    0  0.63905365227E+01 -0.10463188874E+02  0.26730982066E+02  0.29408547748E+02  0.00000000000E+00 0. -1.
      -12    1    3    3    0    0 -0.63905365227E+01  0.10463188874E+02 -0.54281385491E+02  0.55648774374E+02  0.00000000000E+00 0.  1.
</event>
<event>
 5   1  0.6181100E+00  0.8072968E+02  0.7957747E-01  0.1325615E+00
       -4   -1    0    0    0  501  0.00000000000E+00  0.00000000000E+00  0.90425064316E+01  0.90425064316E+01  0.00000000000E+00 0.  1.
        3   -1    0    0  501    0  0.00000000000E+00  0.00000000000E+00 -0.18018460401E+03  0.18018460401E+03  0.00000000000E+00 0. -1.
      -24    2    1    2    0    0  0.00000000000E+00  0.00000000000E+00 -0.17114209758E+03  0.18922711044E+03  0.80729683281E+02 0.  0.
       11    1    3    3    0    0  0.19559293418E+02  0.35185582748E+02 -0.92496347855E+02  0.10087698230E+03  0.00000000000E+00 0. -1.
      -12    1    3    3    0    0 -0.19559293418E+02 -0.35185582748E+02 -0.78645749726E+02  0.88350128139E+02  0.00000000000E+00 0.  1.
</event>
<event>
 5   1  0.6181100E+00  0.7836246E+02  0.7957747E-01  0.1332027E+00
        1   -1    0    0  501    0  0.00000000000E+00  0.00000000000E+00  0.79793881682E+01  0.79793881682E+01  0.00000000000E+00 0. -1.
       -2   -1    0    0    0  501  0.00000000000E+00  0.00000000000E+00 -0.19239179997E+03  0.19239179997E+03  0.00000000000E+00 0.  1.
      -24    2    1    2    0    0  0.00000000000E+00  0.00000000000E+00 -0.18441241180E+03  0.20037118814E+03  0.78362461736E+02 0.  0.
       11    1    3    3    0    0 -0.10391701761E+02 -0.37441050979E+02 -0.10508005386E+03  0.11203409072E+03  0.00000000000E+00 0. -1.
      -12    1    3    3    0    0  0.10391701761E+02  0.37441050979E+02 -0.79332357941E+02  0.88337097419E+02  0.00000000000E+00 0.  1.
</event>
<event>
 5   1  0.6181100E+00  0.8704857E+02  0.7957747E-01  0.1309651E+00
       -2   -1    0    0    0  501  0.00000000000E+00  0.00000000000E+00  0.28755415232E+03  0.28755415232E+03  0.00000000000E+00 0.  1.
        1   -1    0    0  501    0  0.00000000000E+00  0.00000000000E+00 -0.65878491536E+01  0.65878491536E+01  0.00000000000E+00 0. -1.
      -24    2    1    2    0    0  0.00000000000E+00  0.00000000000E+00  0.28096630316E+03  0.29414200147E+03  0.87048569866E+02 0.  0.
       11    1    3    3    0    0  0.38325360181E+02  0.11411546104E+02  0.82415789346E+02  0.91604688477E+02  0.00000000000E+00 0. -1.
      -12    1    3    3    0    0 -0.38325360181E+02 -0.11411546104E+02  0.19855051382E+03  0.20253731299E+03  0.00000000000E+00 0.  1.
</event>
<event>
 6   2  0.6181100E+00  0.8076086E+02  0.7957747E-01  0.1325532E+00
        3   -1    0    0  502    0  0.00000000000E+00  0.00000000000E+00  0.92035655647E+01  0.92035655647E+01  0.00000000000E+00 0. -1.
       -4   -1    0    0    0  501  0.00000000000E+00  0.00000000000E+00 -0.33016783036E+03  0.33016783036E+03  0.00000000000E+00 0.  1.
      -24    2    1    2    0    0  0.81147322573E+01  0.20486321255E+02 -0.18827998425E+03  0.20486988463E+03  0.77696711120E+02 0.  0.
       11    1    3    3    0    0 -0.20779019887E+02  0.25767736151E+02 -0.32658633207E+02  0.46500862537E+02  0.00000000000E+00 0. -1.
      -12    1    3    3    0    0  0.28893752144E+02 -0.52814148956E+01 -0.15562135105E+03  0.15836902209E+03  0.00000000000E+00 0.  1.
       21    1    1    2  502  501 -0.81147322573E+01 -0.20486321255E+02 -0.13268428054E+03  0.13450151130E+03  0.00000000000E+00 0.  1.
</event>
<event>
 4   3  0.6181100E+00  0.1860104E+03  0.7957747E-01  0.1167930E+00
       21   -1    0    0  501  502  0.00000000000E+00  0.00000000000E+00  0.12760383417E+03  0.12760383417E+03  0.00000000000E+00 0.  1.
       21   -1    0    0  502  503  0.00000000000E+00  0.00000000000E+00 -0.27248598667E+03  0.27248598667E+03  0.00000000000E+00 0. -1.
        6    1    1    2  501    0 -0.49123535816E+02 -0.47515783978E+02 -0.58437484586E+02  0.19497387287E+03  0.17300000000E+03 0. -1.
       -6    1    1    2    0  503  0.49123535816E+02  0.47515783978E+02 -0.86444667913E+02  0.20511594796E+03  0.17300000000E+03 0. -1.
</event>
<event>
 5   1  0.6181100E+00  0.7942800E+02  0.7957747E-01  0.1329110E+00
        3   -1    0    0  501    0  0.00000000000E+00  0.00000000000E+00  0.27282640261E+03  0.27282640261E+03  0.00000000000E+00 0. -1.
       -4   -1    0    0    0  501  0.00000000000E+00  0.00000000000E+00 -0.57809713267E+01  0.57809713267E+01  0.00000000000E+00 0.  1.
      -24    2    1    2    0    0  0.00000000000E+00  0.00000000000E+00  0.26704543128E+03  0.27860737393E+03  0.79427995333E+02 0.  0.
       11    1    3    3    0    0  0.61250869554E+01 -0.37101197201E+02  0.17833123249E+03  0.18225269272E+03  0.00000000000E+00 0. -1.
      -12    1    3    3    0    0 -0.61250869554E+01  0.37101197201E+02  0.88714198793E+02  0.96354681212E+02  0.00000000000E+00 0.  1.
</event>
<event>
 5   1  0.6181100E+00  0.7997345E+02  0.7957747E-01  0.1327636E+00
       -2   -1    0    0    0  501  0.00000000000E+00  0.00000000000E+00  0.42648585026E+01  0.42648585026E+01  0.00000000000E+00 0.  1.
        1   -1    0    0  501    0  0.00000000000E+00  0.00000000000E+00 -0.37490999462E+03  0.37490999462E+03  0.00000000000E+00 0. -1.
      -24    2    1    2    0    0  0.00000000000E+00  0.00000000000E+00 -0.37064513612E+03  0.37917485312E+03  0.79973447550E+02 0.  0.
       11    1    3    3    0    0  0.36779259924E+02 -0.14133800892E+02 -0.15300547189E+03  0.15799731870E+03  0.00000000000E+00 0. -1.
      -12    1    3    3    0    0 -0.36779259924E+02  0.14133800892E+02 -0.21763966422E+03  0.22117753442E+03  0.00000000000E+00 0.  1.
</event>
<event>
 5   1  0.6181100E+00  0.8212716E+02  0.7957747E-01  0.1321945E+00
       -2   -1    0    0    0  501  0.00000000000E+00  0.00000000000E+00  0.37106756630E+02  0.37106756630E+02  0.00000000000E+00 0.  1.
        1   -1    0    0  501    0  0.00000000000E+00  0.00000000000E+00 -0.45442336765E+02  0.45442336765E+02  0.00000000000E+00 0. -1.
      -24    2    1    2    0    0  0.00000000000E+00  0.00000000000E+00 -0.83355801357E+01  0.82549093395E+02  0.82127163132E+02 0.  0.
       11    1    3    3    0    0  0.11995682503E+02 -0.17372314397E+02 -0.39569812765E+02  0.44849345463E+02  0.00000000000E+00 0. -1.
      -12    1    3    3    0    0 -0.11995682503E+02  0.17372314397E+02  0.31234232629E+02  0.37699747932E+02  0.00000000000E+00 0.  1.
</event>
<event>
 5   1  0.6181100E+00  0.8137489E+02  0.7957747E-01  0.1323910E+00
        1   -1    0    0  501    0  0.00000000000E+00  0.00000000000E+00  0.83824085184E+02  0.83824085184E+02  0.00000000000E+00 0. -1.
       -2   -1    0    0    0  501  0.00000000000E+00  0.00000000000E+00 -0.19749314366E+02  0.19749314366E+02  0.00000000000E+00 0.  1.
      -24    2    1    2    0    0  0.00000000000E+00  0.00000000000E+00  0.64074770818E+02  0.10357339955E+03  0.81374890716E+02 0.  0.
       11    1    3    3    0    0  0.89408732463E+01  0.15855668605E+02  0.78352484279E+02  0.80439127507E+02  0.00000000000E+00 0. -1.
      -12    1    3    3    0    0 -0.89408732463E+01 -0.15855668605E+02 -0.14277713461E+02  0.23134272044E+02  0.00000000000E+00 0.  1.
</event>
<event>
 5   1  0.6181100E+00  0.8149685E+02  0.7957747E-01  0.1323590E+00
        3   -1    0    0  501    0  0.00000000000E+00  0.00000000000E+00  0.92388388454E+01  0.92388388454E+01  0.00000000000E+00 0. -1.
       -4   -1    0    0    0  501  0.00000000000E+00  0.00000000000E+00 -0.17972323193E+03  0.17972323193E+03  0.00000000000E+00 0.  1.
      -24    2    1    2    0    0  0.00000000000E+00  0.00000000000E+00 -0.17048439309E+03  0.18896207078E+03  0.81496845991E+02 0.  0.
       11    1    3    3    0    0  0.37175482515E+02 -0.16279411520E+01 -0.46738253251E+02  0.59742204593E+02  0.00000000000E+00 0. -1.
      -12    1    3    3    0    0 -0.37175482515E+02  0.16279411520E+01 -0.12374613984E+03  0.12921986619E+03  0.00000000000E+00 0.  1.
</event>
<event>
 5   1  0.6181100E+00  0.8085073E+02  0.7957747E-01  0.1325294E+00
       -4   -1    0    0    0  501  0.00000000000E+00  0.00000000000E+00  0.34320934992E+02  0.34320934992E+02  0.00000000000E+00 0.  1.
        3   -1    0    0  501    0  0.00000000000E+00  0.00000000000E+00 -0.47615546635E+02  0.47615546635E+02  0.00000000000E+00 0. -1.
      -24    2    1    2    0    0  0.00000000000E+00  0.00000000000E+00 -0.13294611643E+02  0.81936481628E+02  0.80850728647E+02 0.  0.
       11    1    3    3    0    0  0.22405392050E+02 -0.28261287975E+02  0.11860143104E+02  0.37965312923E+02  0.00000000000E+00 0. -1.
      -12    1    3    3    0    0 -0.22405392050E+02  0.28261287975E+02 -0.25154754747E+02  0.43971168705E+02  0.00000000000E+00 0.  1.
</event>
<event>
 5   1  0.6181100E+00  0.7961199E+02  0.7957747E-01  0.1328611E+00
       -4   -1    0    0    0  501  0.00000000000E+00  0.00000000000E+00  0.10613566637E+03  0.10613566637E+03  0.00000000000E+00 0.  1.
        3   -1    0    0  501    0  0.00000000000E+00  0.00000000000E+00 -0.14929168170E+02  0.14929168170E+02  0.00000000000E+00 0. -1.
      -24    2    1    2    0    0  0.00000000000E+00  0.00000000000E+00  0.91206498201E+02  0.12106483454E+03  0.79611989352E+02 0.  0.
       11    1    3    3    0    0  0.33979212827E+02 -0.44535864915E+01  0.14808105249E+02  0.37332309305E+02  0.00000000000E+00 0. -1.
      -12    1    3    3    0    0 -0.33979212827E+02  0.44535864915E+01  0.76398392952E+02  0.83732525237E+02  0.00000000000E+00 0.  1.
</event>
<event>
 5   1  0.6181100E+00  0.8191771E+02  0.7957747E-01  0.1322490E+00
        1   -1    0    0  501    0  0.00000000000E+00  0.00000000000E+00  0.19893766760E+01  0.19893766760E+01  0.00000000000E+00 0. -1.
       -2   -1    0    0    0  501  0.00000000000E+00  0.00000000000E+00 -0.84329309440E+03  0.84329309440E+03  0.00000000000E+00 0.  1.
      -24    2    1    2    0    0  0.00000000000E+00  0.00000000000E+00 -0.84130371773E+03  0.84528247108E+03  0.81917705365E+02 0.  0.
       11    1    3    3    0    0  0.22642186933E+02 -0.48223839670E+01 -0.71992948143E+02  0.75623465925E+02  0.00000000000E+00 0. -1.
      -12    1    3    3    0    0 -0.22642186933E+02  0.48223839670E+01 -0.76931076958E+03  0.76965900515E+03  0.00000000000E+00 0.  1.
</event>
<event>
 6   2  0.6181100E+00  0.1068251E+03  0.7957747E-01  0.1268162E+00
       -2   -1    0    0    0  501  0.00000000000E+00  0.00000000000E+00  0.42529082475E+02  0.42529082475E+02  0.00000000000E+00 0.  1.
        1   -1    0    0  502    0  0.00000000000E+00  0.00000000000E+00 -0.29819991015E+03  0.29819991015E+03  0.00000000000E+00 0. -1.
      -24    2    1    2    0    0  0.67245097023E+02  0.21962910302E+02 -0.24743530578E+03  0.26951034111E+03  0.80045742661E+02 0.  0.
       11    1    3    3    0    0  0.78369208044E+02  0.26294899271E+02 -0.14934166474E+03  0.17069296214E+03  0.00000000000E+00 0. -1.
      -12    1    3    3    0    0 -0.11124111021E+02 -0.43319889681E+01 -0.98093641044E+02  0.98817378976E+02  0.00000000000E+00 0.  1.
       21    1    1    2  502  501 -0.67245097023E+02 -0.21962910302E+02 -0.82355218966E+01  0.71218651514E+02  0.00000000000E+00 0.  1.
</event>
<event>
 5   1  0.6181100E+00  0.7990850E+02  0.7957747E-01  0.1327811E+00
        1   -1    0    0  501    0  0.00000000000E+00  0.00000000000E+00  0.17332150743E+03  0.17332150743E+03  0.00000000000E+00 0. -1.
       -2   -1    0    0    0  501  0.00000000000E+00  0.00000000000E+00 -0.92102943198E+01  0.92102943198E+01  0.00000000000E+00 0.  1.
      -24    2    1    2    0    0  0.00000000000E+00  0.00000000000E+00  0.16411121311E+03  0.18253180175E+03  0.79908500058E+02 0.  0.
       11    1    3    3    0    0  0.32151241503E+02  0.22494413824E+02  0.64864198567E+02  0.75809400731E+02  0.00000000000E+00 0. -1.
      -12    1    3    3    0    0 -0.32151241503E+02 -0.22494413824E+02  0.99247014543E+02  0.10672240102E+03  0.00000000000E+00 0.  1.
</event>
<event>
 5   1  0.6181100E+00  0.8141770E+02  0.7957747E-01  0.1323798E+00
       -2   -1    0    0    0  501  0.00000000000E+00  0.00000000000E+00  0.21603858901E+02  0.21603858901E+02  0.00000000000E+00 0.  1.
        1   -1    0    0  501    0  0.00000000000E+00  0.00000000000E+00 -0.76708996174E+02  0.76708996174E+02  0.00000000000E+00 0. -1.
      -24    2    1    2    0    0  0.00000000000E+00  0.00000000000E+00 -0.55105137273E+02  0.98312855076E+02  0.81417696598E+02 0.  0.
       11    1    3    3    0    0 -0.28867954574E+02 -0.27620140501E+02 -0.36981944638E+02  0.54441667790E+02  0.00000000000E+00 0. -1.
      -12    1    3    3    0    0  0.28867954574E+02  0.27620140501E+02 -0.18123192636E+02  0.43871187286E+02  0.00000000000E+00 0.  1.
</event>
<event>
 6   2  0.6181100E+00  0.8752406E+02  0.7957747E-01  0.1308512E+00
       -2   -1    0    0    0  501  0.00000000000E+00  0.00000000000E+00  0.90973615587E+02  0.90973615587E+02  0.00000000000E+00 0.  1.
       21   -1    0    0  501  502  0.00000000000E+00  0.00000000000E+00 -0.36832195207E+02  0.36832195207E+02  0.00000000000E+00 0. -1.
      -24    2    1    2    0    0  0.64468249419E+01  0.19902814811E+02  0.23359990228E+02  0.90587803977E+02  0.84986925446E+02 0.  0.
       11    1    3    3    0    0  0.41010026239E+02  0.15677149277E+02 -0.69157429137E+01  0.44445728272E+02  0.00000000000E+00 0. -1.
      -12    1    3    3    0    0 -0.34563201297E+02  0.42256655340E+01  0.30275733142E+02  0.46142075705E+02  0.00000000000E+00 0.  1.
       -1    1    1    2    0  502 -0.64468249419E+01 -0.19902814811E+02  0.30781430152E+02  0.37218006817E+02  0.00000000000E+00 0.  1.
</event>
<event>
 5   1  0.6181100E+00  0.8379503E+02  0.7957747E-01  0.1317672E+00
       -4   -1    0    0    0  501  0.00000000000E+00  0.00000000000E+00  0.10432137178E+03  0.10432137178E+03  0.00000000000E+00 0.  1.
        3   -1    0    0  501    0  0.00000000000E+00  0.00000000000E+00 -0.16826865027E+02  0.16826865027E+02  0.00000000000E+00 0. -1.
      -24    2    1    2    0    0  0.00000000000E+00  0.00000000000E+00  0.87494506756E+02  0.12114823681E+03  0.83795027118E+02 0.  0.
       11    1    3    3    0    0  0.13151341838E+01  0.37996272685E+02  0.18293700907E+02  0.42191300155E+02  0.00000000000E+00 0. -1.
      -12    1    3    3    0    0 -0.13151341838E+01 -0.37996272685E+02  0.69200805849E+02  0.78956936655E+02  0.00000000000E+00 0.  1.
</event>
<event>
 6   2  0.6181100E+00  0.8319352E+02  0.7957747E-01  0.1319200E+00
       21   -1    0    0  501  502  0.00000000000E+00  0.00000000000E+00  0.31787078087E+03  0.31787078087E+03  0.00000000000E+00 0.  1.
        3   -1    0    0  502    0  0.00000000000E+00  0.00000000000E+00 -0.11081898981E+02  0.11081898981E+02  0.00000000000E+00 0. -1.
      -24    2    1    2    0    0 -0.16040625404E+02 -0.12355508104E+02  0.29268053185E+03  0.30427463729E+03  0.80692012806E+02 0.  0.
       11    1    3    3    0    0 -0.18512448032E+02  0.30812327473E+02  0.18060926386E+03  0.18415161267E+03  0.00000000000E+00 0. -1.
      -12    1    3    3    0    0  0.24718226285E+01 -0.43167835576E+02  0.11207126798E+03  0.12012302462E+03  0.00000000000E+00 0.  1.
        4    1    1    2  501    0  0.16040625404E+02  0.12355508104E+02  0.14108350040E+02  0.24678042562E+02  0.00000000000E+00 0. -1.
</event>
<event>
 5   1  0.6181100E+00  0.8070097E+02  0.7957747E-01  0.1325691E+00
       -4   -1    0    0    0  501  0.00000000000E+00  0.00000000000E+00  0.17560765147E+03  0.17560765147E+03  0.00000000000E+00 0.  1.
        3   -1    0    0  501    0  0.00000000000E+00  0.00000000000E+00 -0.92715873446E+01  0.92715873446E+01  0.00000000000E+00 0. -1.
      -24    2    1    2    0    0  0.00000000000E+00  0.00000000000E+00  0.16633606412E+03  0.18487923881E+03  0.80700970973E+02 0.  0.
       11    1    3    3    0    0 -0.96447345216E+01 -0.32000456904E+02  0.31375490330E+02  0.45841809950E+02  0.00000000000E+00 0. -1.
      -12    1    3    3    0    0  0.96447345216E+01  0.32000456904E+02  0.13496057379E+03  0.13903742886E+03  0.00000000000E+00 0.  1.
</event>
<event>
 5   1  0.6181100E+00  0.8457631E+02  0.7957747E-01  0.1315709E+00
        3   -1    0    0  501    0  0.00000000000E+00  0.00000000000E+00  0.50098491631E+02  0.50098491631E+02  0.00000000000E+00 0. -1.
       -4   -1    0    0    0  501  0.00000000000E+00  0.00000000000E+00 -0.35695445738E+02  0.35695445738E+02  0.00000000000E+00 0.  1.
      -24    2    1    2    0    0  0.00000000000E+00  0.00000000000E+00  0.14403045894E+02  0.85793937369E+02  0.84576308493E+02 0.  0.
       11    1    3    3    0    0 -0.24320561648E+02  0.32228290691E+02  0.19957761442E+02  0.45038480009E+02  0.00000000000E+00 0. -1.
      -12    1    3    3    0    0  0.24320561648E+02 -0.32228290691E+02 -0.55547155484E+01  0.40755457360E+02  0.00000000000E+00 0.  1.
</event>
<event>
 5   1  0.6181100E+00  0.8412338E+02  0.7957747E-01  0.1316844E+00
       -2   -1    0    0    0  501  0.00000000000E+00  0.00000000000E+00  0.63536637684E+01  0.63536637684E+01  0.00000000000E+00 0.  1.
        1   -1    0    0  501    0  0.00000000000E+00  0.00000000000E+00 -0.27845129669E+03  0.27845129669E+03  0.00000000000E+00 0. -1.
      -24    2    1    2    0    0  0.00000000000E+00  0.00000000000E+00 -0.27209763292E+03  0.28480496046E+03  0.84123383552E+02 0.  0.
       11    1    3    3    0    0  0.34337154803E+02  0.24025648832E+02 -0.12388248206E+03  0.13077897906E+03  0.00000000000E+00 0. -1.
      -12    1    3    3    0    0 -0.34337154803E+02 -0.24025648832E+02 -0.14821515086E+03  0.15402598140E+03  0.00000000000E+00 0.  1.
</event>
<event>
 6   2  0.6181100E+00  0.9955171E+02  0.7957747E-01  0.1282153E+00
       21   -1    0    0  501  502  0.00000000000E+00  0.00000000000E+00  0.19702513551E+02  0.19702513551E+02  0.00000000000E+00 0. -1.
        1   -1    0    0  502    0  0.00000000000E+00  0.00000000000E+00 -0.35797457348E+03  0.35797457348E+03  0.00000000000E+00 0. -1.
      -24    2    1    2    0    0  0.47742942875E+02 -0.36334861242E+02 -0.26433610500E+03  0.28246082704E+03  0.79441372527E+02 0.  0.
       11    1    3    3    0    0  0.40745051051E+02 -0.55150943792E+02 -0.24562946639E+03  0.25502082375E+03  0.00000000000E+00 0. -1.
      -12    1    3    3    0    0  0.69978918236E+01  0.18816082550E+02 -0.18706638610E+02  0.27440003290E+02  0.00000000000E+00 0.  1.
        2    1    1    2  501    0 -0.47742942875E+02  0.36334861242E+02 -0.73935954937E+02  0.95216259999E+02  0.00000000000E+00 0. -1.
</event>
<event>
 6   2  0.6181100E+00  0.8471453E+02  0.7957747E-01  0.1315364E+00
       21   -1    0    0  501  502  0.00000000000E+00  0.00000000000E+00  0.40835956359E+01  0.40835956359E+01  0.00000000000E+00 0.  1.
        1   -1    0    0  502    0  0.00000000000E+00  0.00000000000E+00 -0.11626186776E+04  0.11626186776E+04  0.00000000000E+00 0. -1.
      -24    2    1    2    0    0  0.23737428753E+02  0.49885888687E+01 -0.45933401103E+03  0.46708059752E+03  0.81167723534E+02 0.  0.
       11    1    3    3    0    0 -0.29030462381E+02 -0.65682188518E+00 -0.11138643067E+03  0.11510923551E+03  0.00000000000E+00 0. -1.
      -12    1    3    3    0    0  0.52767891134E+02  0.56454107539E+01 -0.34794758036E+03  0.35197136201E+03  0.00000000000E+00 0.  1.
        2    1    1    2  501    0 -0.23737428753E+02 -0.49885888687E+01 -0.69920107095E+03  0.69962167573E+03  0.00000000000E+00 0. -1.
</event>
<event>
 5   1  0.6181100E+00  0.7988230E+02  0.7957747E-01  0.1327882E+00
        3   -1    0    0  501    0  0.00000000000E+00  0.00000000000E+00  0.22417599642E+02  0.22417599642E+02  0.00000000000E+00 0. -1.
       -4   -1    0    0    0  501  0.00000000000E+00  0.00000000000E+00 -0.71162627084E+02  0.71162627084E+02  0.00000000000E+00 0.  1.
      -24    2    1    2    0    0  0.00000000000E+00  0.00000000000E+00 -0.48745027442E+02  0.93580226726E+02  0.79882295497E+02 0.  0.
       11    1    3    3    0    0  0.16021315622E+02  0.20807756592E+02  0.10881920660E+02  0.28426422320E+02  0.00000000000E+00 0. -1.
      -12    1    3    3    0    0 -0.16021315622E+02 -0.20807756592E+02 -0.59626948103E+02  0.65153804407E+02  0.00000000000E+00 0.  1.
</event>
<event>
 6   2  0.6181100E+00  0.9608417E+02  0.7957747E-01  0.1289304E+00
        3   -1    0    0  502    0  0.00000000000E+00  0.00000000000E+00  0.10147661110E+04  0.10147661110E+04  0.00000000000E+00 0. -1.
       21   -1    0    0  501  502  0.00000000000E+00  0.00000000000E+00 -0.54701831278E+01  0.54701831278E+01  0.00000000000E+00 0. -1.
      -24    2    1    2    0    0 -0.17351233723E+02  0.48245453837E+02  0.72702973627E+03  0.73335148789E+03  0.81261788346E+02 0.  0.
       11    1    3    3    0    0 -0.42804672500E+00  0.28422786554E+02  0.66663600485E+02  0.72471191857E+02  0.00000000000E+00 0. -1.
      -12    1    3    3    0    0 -0.16923186998E+02  0.19822667283E+02  0.66036613578E+03  0.66088029604E+03  0.00000000000E+00 0.  1.
        4    1    1    2  501    0  0.17351233723E+02 -0.48245453837E+02  0.28226619164E+03  0.28688480627E+03  0.00000000000E+00 0. -1.
</event>
<event>
 5   1  0.6181100E+00  0.8123600E+02  0.7957747E-01  0.1324276E+00
        3   -1    0    0  501    0  0.00000000000E+00  0.00000000000E+00  0.15993934734E+02  0.15993934734E+02  0.00000000000E+00 0. -1.
       -4   -1    0    0    0  501  0.00000000000E+00  0.00000000000E+00 -0.10315296338E+03  0.10315296338E+03  0.00000000000E+00 0.  1.
      -24    2    1    2    0    0  0.00000000000E+00  0.00000000000E+00 -0.87159028650E+02  0.11914689812E+03  0.81235996059E+02 0.  0.
       11    1    3    3    0    0  0.19366984699E+02 -0.82224077654E+01  0.73784316223E+01  0.22296397445E+02  0.00000000000E+00 0. -1.
      -12    1    3    3    0    0 -0.19366984699E+02  0.82224077654E+01 -0.94537460273E+02  0.96850500673E+02  0.00000000000E+00 0.  1.
</event>
<event>
 5   1  0.6181100E+00  0.7965843E+02  0.7957747E-01  0.1328486E+00
       -2   -1    0    0    0  501  0.00000000000E+00  0.00000000000E+00  0.58994915340E+01  0.58994915340E+01  0.00000000000E+00 0.  1.
        1   -1    0    0  501    0  0.00000000000E+00  0.00000000000E+00 -0.26889880733E+03  0.26889880733E+03  0.00000000000E+00 0. -1.
      -24    2    1    2    0    0  0.00000000000E+00  0.00000000000E+00 -0.26299931580E+03  0.27479829886E+03  0.79658426732E+02 0.  0.
       11    1    3    3    0    0 -0.23097841609E+02  0.29125832732E+02 -0.18083672980E+03  0.18461784113E+03  0.00000000000E+00 0. -1.
      -12    1    3    3    0    0  0.23097841609E+02 -0.29125832732E+02 -0.82162586000E+02  0.90180457736E+02  0.00000000000E+00 0.  1.
</event>
<event>
 5   1  0.6181100E+00  0.8011227E+02  0.7957747E-01  0.1327263E+00
        1   -1    0    0  501    0  0.00000000000E+00  0.00000000000E+00  0.24570662978E+03  0.24570662978E+03  0.00000000000E+00 0. -1.
       -2   -1    0    0    0  501  0.00000000000E+00  0.00000000000E+00 -0.65301214314E+01  0.65301214314E+01  0.00000000000E+00 0.  1.
      -24    2    1    2    0    0  0.00000000000E+00  0.00000000000E+00  0.23917650835E+03  0.25223675122E+03  0.80112274440E+02 0.  0.
       11    1    3    3    0    0 -0.26252924934E+02 -0.29371372216E+02  0.14242343567E+03  0.14777120356E+03  0.00000000000E+00 0. -1.
      -12    1    3    3    0    0  0.26252924934E+02  0.29371372216E+02  0.96753072683E+02  0.10446554766E+03  0.00000000000E+00 0.  1.
</event>
<event>
 5   1  0.6181100E+00  0.8071300E+02  0.7957747E-01  0.1325659E+00
        1   -1    0    0  501    0  0.00000000000E+00  0.00000000000E+00  0.10252444579E+02  0.10252444579E+02  0.00000000000E+00 0. -1.
       -2   -1    0    0    0  501  0.00000000000E+00  0.00000000000E+00 -0.15885449918E+03  0.15885449918E+03  0.00000000000E+00 0.  1.
      -24    2    1    2    0    0  0.00000000000E+00  0.00000000000E+00 -0.14860205460E+03  0.16910694376E+03  0.80712996448E+02 0.  0.
       11    1    3    3    0    0  0.19087720288E+02  0.15334855608E+02 -0.70874662420E+01  0.25489822283E+02  0.00000000000E+00 0. -1.
      -12    1    3    3    0    0 -0.19087720288E+02 -0.15334855608E+02 -0.14151458836E+03  0.14361712147E+03  0.00000000000E+00 0.  1.
</event>
<event>
 5   1  0.6181100E+00  0.8116466E+02  0.7957747E-01  0.1324464E+00
       -4   -1    0    0    0  501  0.00000000000E+00  0.00000000000E+00  0.17974591448E+03  0.17974591448E+03  0.00000000000E+00 0.  1.
        3   -1    0    0  501    0  0.00000000000E+00  0.00000000000E+00 -0.91625188905E+01  0.91625188905E+01  0.00000000000E+00 0. -1.
      -24    2    1    2    0    0  0.00000000000E+00  0.00000000000E+00  0.17058339559E+03  0.18890843337E+03  0.81164655778E+02 0.  0.
       11    1    3    3    0    0 -0.36277459294E+02  0.17921857186E+02  0.92532461287E+02  0.10099259087E+03  0.00000000000E+00 0. -1.
      -12    1    3    3    0    0  0.36277459294E+02 -0.17921857186E+02  0.78050934299E+02  0.87915842502E+02  0.00000000000E+00 0.  1.
</event>
<event>
 6   2  0.6181100E+00  0.1019151E+03  0.7957747E-01  0.1277463E+00
        1   -1    0    0  502    0  0.00000000000E+00  0.00000000000E+00  0.11705697020E+03  0.11705697020E+03  0.00000000000E+00 0. -1.
       21   -1    0    0  501  502  0.00000000000E+00  0.00000000000E+00 -0.58963211961E+02  0.58963211961E+02  0.00000000000E+00 0. -1.
      -24    2    1    2    0    0  0.52145789840E+02  0.35219260986E+02  0.46558984250E+02  0.11204650981E+03  0.80169206086E+02 0.  0.
       11    1    3    3    0    0  0.61837557933E+02  0.50082201367E+02  0.49990259960E+02  0.93974127055E+02  0.00000000000E+00 0. -1.
      -12    1    3    3    0    0 -0.96917680931E+01 -0.14862940381E+02 -0.34312757107E+01  0.18072382758E+02  0.00000000000E+00 0.  1.
        2    1    1    2  501    0 -0.52145789840E+02 -0.35219260986E+02  0.11534773987E+02  0.63973672346E+02  0.00000000000E+00 0. -1.
</event>
<event>
 6   2  0.6181100E+00  0.1096451E+03  0.7957747E-01  0.1263070E+00
        1   -1    0    0  502    0  0.00000000000E+00  0.00000000000E+00  0.90065001082E+03  0.90065001082E+03  0.00000000000E+00 0. -1.
       21   -1    0    0  501  502  0.00000000000E+00  0.00000000000E+00 -0.93982600296E+01  0.93982600296E+01  0.00000000000E+00 0. -1.
      -24    2    1    2    0    0 -0.38716834164E+02 -0.62966848382E+02  0.56290362973E+03  0.57348281534E+03  0.80982873972E+02 0.  0.
       11    1    3    3    0    0 -0.22394926044E+02 -0.80636256164E+02  0.47650089302E+03  0.48379421201E+03  0.00000000000E+00 0. -1.
      -12    1    3    3    0    0 -0.16321908120E+02  0.17669407782E+02  0.86402736707E+02  0.89688603326E+02  0.00000000000E+00 0.  1.
        2    1    1    2  501    0  0.38716834164E+02  0.62966848382E+02  0.32834812106E+03  0.33656545552E+03  0.00000000000E+00 0. -1.
</event>
<event>
 6   2  0.6181100E+00  0.8316032E+02  0.7957747E-01  0.1319285E+00
       21   -1    0    0  501  502  0.00000000000E+00  0.00000000000E+00  0.14393230235E+02  0.14393230235E+02  0.00000000000E+00 0. -1.
        3   -1    0    0  502    0  0.00000000000E+00  0.00000000000E+00 -0.25084013860E+03  0.25084013860E+03  0.00000000000E+00 0. -1.
      -24    2    1    2    0    0 -0.31913442669E+01 -0.23367731157E+02 -0.11737963969E+03  0.14385276903E+03  0.79745870163E+02 0.  0.
       11    1    3    3    0    0 -0.36032592801E+02 -0.13100249667E+02 -0.26309175630E+02  0.46498785013E+02  0.00000000000E+00 0. -1.
      -12    1    3    3    0    0  0.32841248534E+02 -0.10267481490E+02 -0.91070464056E+02  0.97353984021E+02  0.00000000000E+00 0.  1.
        4    1    1    2  501    0  0.31913442669E+01  0.23367731157E+02 -0.11906726868E+03  0.12138059981E+03  0.00000000000E+00 0. -1.
</event>
<event>
 5   1  0.6181100E+00  0.8111945E+02  0.7957747E-01  0.1324583E+00
        1   -1    0    0  501    0  0.00000000000E+00  0.00000000000E+00  0.15866924228E+02  0.15866924228E+02  0.00000000000E+00 0. -1.
       -2   -1    0    0    0  501  0.00000000000E+00  0.00000000000E+00 -0.10368052878E+03  0.10368052878E+03  0.00000000000E+00 0.  1.
      -24    2    1    2    0    0  0.00000000000E+00  0.00000000000E+00 -0.87813604552E+02  0.11954745301E+03  0.81119445119E+02 0.  0.
       11    1    3    3    0    0 -0.24328224042E+02  0.27053770174E+02 -0.17489669803E+02  0.40369016776E+02  0.00000000000E+00 0. -1.
      -12    1    3    3    0    0  0.24328224042E+02 -0.27053770174E+02 -0.70323934749E+02  0.79178436232E+02  0.00000000000E+00 0.  1.
</event>
<event>
 5   1  0.6181100E+00  0.8055440E+02  0.7957747E-01  0.1326081E+00
        3   -1    0    0  501    0  0.00000000000E+00  0.00000000000E+00  0.74897909023E+02  0.74897909023E+02  0.00000000000E+00 0. -1.
       -4   -1    0    0    0  501  0.00000000000E+00  0.00000000000E+00 -0.21659521778E+02  0.21659521778E+02  0.00000000000E+00 0.  1.
      -24    2    1    2    0    0  0.00000000000E+00  0.00000000000E+00  0.53238387245E+02  0.96557430801E+02  0.80554401285E+02 0.  0.
       11    1    3    3    0    0  0.12396526966E+02  0.15804347072E+02  0.68466059745E+02  0.71351612485E+02  0.00000000000E+00 0. -1.
      -12    1    3    3    0    0 -0.12396526966E+02 -0.15804347072E+02 -0.15227672500E+02  0.25205818316E+02  0.00000000000E+00 0.  1.
</event>
<event>
 5   1  0.6181100E+00  0.8076642E+02  0.7957747E-01  0.1325518E+00
        1   -1    0    0  501    0  0.00000000000E+00  0.00000000000E+00  0.91829967742E+01  0.91829967742E+01  0.00000000000E+00 0. -1.
       -2   -1    0    0    0  501  0.00000000000E+00  0.00000000000E+00 -0.17758949465E+03  0.17758949465E+03  0.00000000000E+00 0.  1.
      -24    2    1    2    0    0  0.00000000000E+00  0.00000000000E+00 -0.16840649788E+03  0.18677249142E+03  0.80766422639E+02 0.  0.
       11    1    3    3    0    0  0.12296513504E+02  0.36340241577E+01  0.43505731393E+01  0.13540231260E+02  0.00000000000E+00 0. -1.
      -12    1    3    3    0    0 -0.12296513504E+02 -0.36340241577E+01 -0.17275707102E+03  0.17323226016E+03  0.00000000000E+00 0.  1.
</event>
<event>
 5   1  0.6181100E+00  0.8799438E+02  0.7957747E-01  0.1307393E+00
        3   -1    0    0  501    0  0.00000000000E+00  0.00000000000E+00  0.32905428924E+02  0.32905428924E+02  0.00000000000E+00 0. -1.
       -4   -1    0    0    0  501  0.00000000000E+00  0.00000000000E+00 -0.58827761327E+02  0.58827761327E+02  0.00000000000E+00 0.  1.
      -24    2    1    2    0    0  0.00000000000E+00  0.00000000000E+00 -0.25922332403E+02  0.91733190251E+02  0.87994379800E+02 0.  0.
       11    1    3    3    0    0  0.19472563941E+02  0.89644915038E+00  0.28157974384E+02  0.34246983647E+02  0.00000000000E+00 0. -1.
      -12    1    3    3    0    0 -0.19472563941E+02 -0.89644915038E+00 -0.54080306787E+02  0.57486206604E+02  0.00000000000E+00 0.  1.
</event>
<event>
 5   1  0.6181100E+00  0.8088882E+02  0.7957747E-01  0.1325193E+00
       -2   -1    0    0    0  501  0.00000000000E+00  0.00000000000E+00  0.22238265644E+02  0.22238265644E+02  0.00000000000E+00 0.  1.
        1   -1    0    0  501    0  0.00000000000E+00  0.00000000000E+00 -0.73555663237E+02  0.73555663237E+02  0.00000000000E+00 0. -1.
      -24    2    1    2    0    0  0.00000000000E+00  0.00000000000E+00 -0.51317397593E+02  0.95793928881E+02  0.80888821939E+02 0.  0.
       11    1    3    3    0    0  0.13162560154E+02  0.27475835495E+02 -0.57160542833E+02  0.64772696277E+02  0.00000000000E+00 0. -1.
      -12    1    3    3    0    0 -0.13162560154E+02 -0.27475835495E+02  0.58431452398E+01  0.31021232604E+02  0.00000000000E+00 0.  1.
</event>
<event>
 5   1  0.6181100E+00  0.8009731E+02  0.7957747E-01  0.1327303E+00
        1   -1    0    0  501    0  0.00000000000E+00  0.00000000000E+00  0.19176107545E+03  0.19176107545E+03  0.00000000000E+00 0. -1.
       -2   -1    0    0    0  501  0.00000000000E+00  0.00000000000E+00 -0.83640262523E+01  0.83640262523E+01  0.00000000000E+00 0.  1.
      -24    2    1    2    0    0  0.00000000000E+00  0.00000000000E+00  0.18339704920E+03  0.20012510170E+03  0.80097307551E+02 0.  0.
       11    1    3    3    0    0  0.31052014165E+02 -0.97402745885E+01  0.15001615382E+03  0.15350552739E+03  0.00000000000E+00 0. -1.
      -12    1    3    3    0    0 -0.31052014165E+02  0.97402745885E+01  0.33380895380E+02  0.46619574313E+02  0.00000000000E+00 0.  1.
</event>
<event>
 4   3  0.6181100E+00  0.2037275E+03  0.7957747E-01  0.1152981E+00
       21   -1    0    0  503  502  0.00000000000E+00  0.00000000000E+00  0.19651343825E+02  0.19651343825E+02  0.00000000000E+00 0.  1.
       21   -1    0    0  501  503  0.00000000000E+00  0.00000000000E+00 -0.21713192078E+04  0.21713192078E+04  0.00000000000E+00 0.  1.
        6    1    1    2  501    0  0.65538320048E+02  0.85326560423E+02 -0.12568047056E+04  0.12732097083E+04  0.17300000000E+03 0.  1.
       -6    1    1    2    0  502 -0.65538320048E+02 -0.85326560423E+02 -0.89486315835E+03  0.91776084329E+03  0.17300000000E+03 0.  1.
</event>
<event>
 4   3  0.6181100E+00  0.2033482E+03  0.7957747E-01  0.1153284E+00
       21   -1    0    0  503  502  0.00000000000E+00  0.00000000000E+00  0.31419206149E+03  0.31419206149E+03  0.00000000000E+00 0.  1.
       21   -1    0    0  501  503  0.00000000000E+00  0.00000000000E+00 -0.16358245863E+03  0.16358245863E+03  0.00000000000E+00 0.  1.
        6    1    1    2  501    0 -0.10313203272E+03  0.28022539345E+02 -0.30308824729E+02  0.20559451291E+03  0.17300000000E+03 0.  1.
       -6    1    1    2    0  502  0.10313203272E+03 -0.28022539345E+02  0.18091842759E+03  0.27218000721E+03  0.17300000000E+03 0.  1.
</event>
<event>
 6   2  0.6181100E+00  0.1141085E+03  0.7957747E-01  0.1255350E+00
        1   -1    0    0  502    0  0.00000000000E+00  0.00000000000E+00  0.23146833829E+02  0.23146833829E+02  0.00000000000E+00 0. -1.
       21   -1    0    0  501  502  0.00000000000E+00  0.00000000000E+00 -0.86156766249E+03  0.86156766249E+03  0.00000000000E+00 0.  1.
      -24    2    1    2    0    0 -0.75341994237E+02  0.30056465783E+02 -0.77053911426E+03  0.77894240935E+03  0.80255487379E+02 0.  0.
       11    1    3    3    0    0 -0.24863849969E+01  0.16826133065E+02 -0.28293767856E+02  0.33012697009E+02  0.00000000000E+00 0. -1.
      -12    1    3    3    0    0 -0.72855609240E+02  0.13230332718E+02 -0.74224534640E+03  0.74592971235E+03  0.00000000000E+00 0.  1.
        2    1    1    2  501    0  0.75341994237E+02 -0.30056465783E+02 -0.67881714402E+02  0.10577208697E+03  0.00000000000E+00 0. -1.
</event>
<event>
 6   2  0.6181100E+00  0.9394668E+02  0.7957747E-01  0.1293883E+00
        3   -1    0    0  502    0  0.00000000000E+00  0.00000000000E+00  0.15801363992E+03  0.15801363992E+03  0.00000000000E+00 0. -1.
       21   -1    0    0  501  502  0.00000000000E+00  0.00000000000E+00 -0.10801934126E+03  0.10801934126E+03  0.00000000000E+00 0. -1.
      -24    2    1    2    0    0 -0.33644315288E+02 -0.35407012478E+02  0.13708128015E+03  0.16618440168E+03  0.80251987580E+02 0.  0.
       11    1    3    3    0    0 -0.57282782684E+02 -0.39982205211E+02  0.10071492099E+03  0.12256993610E+03  0.00000000000E+00 0. -1.
      -12    1    3    3    0    0  0.23638467395E+02  0.45751927332E+01  0.36366359156E+02  0.43614465577E+02  0.00000000000E+00 0.  1.
        4    1    1    2  501    0  0.33644315288E+02  0.35407012478E+02 -0.87086981485E+02  0.99848579500E+02  0.00000000000E+00 0. -1.
</event>
<event>
 5   1  0.6181100E+00  0.8139241E+02  0.7957747E-01  0.1323864E+00
       -4   -1    0    0    0  501  0.00000000000E+00  0.00000000000E+00  0.64794361480E+01  0.64794361480E+01  0.00000000000E+00 0.  1.
        3   -1    0    0  501    0  0.00000000000E+00  0.00000000000E+00 -0.25560571367E+03  0.25560571367E+03  0.00000000000E+00 0. -1.
      -24    2    1    2    0    0  0.00000000000E+00  0.00000000000E+00 -0.24912627753E+03  0.26208514982E+03  0.81392405071E+02 0.  0.
       11    1    3    3    0    0  0.96434674396E+01  0.36614974067E+02 -0.17259738415E+03  0.17670175383E+03  0.00000000000E+00 0. -1.
      -12    1    3    3    0    0 -0.96434674396E+01 -0.36614974067E+02 -0.76528893374E+02  0.85383395993E+02  0.00000000000E+00 0.  1.
</event>
<event>
 6   2  0.6181100E+00  0.8973444E+02  0.7957747E-01  0.1303322E+00
       -2   -1    0    0    0  501  0.00000000000E+00  0.00000000000E+00  0.37690815741E+03  0.37690815741E+03  0.00000000000E+00 0.  1.
       21   -1    0    0  501  502  0.00000000000E+00  0.00000000000E+00 -0.37494816036E+02  0.37494816036E+02  0.00000000000E+00 0.  1.
      -24    2    1    2    0    0 -0.17351465832E+02  0.16649466160E+02  0.36699730112E+03  0.37780853500E+03  0.86452252700E+02 0.  0.
       11    1    3    3    0    0  0.14369747449E+01 -0.10400320657E+02  0.12407685961E+01  0.10572183923E+02  0.00000000000E+00 0. -1.
      -12    1    3    3    0    0 -0.18788440577E+02  0.27049786817E+02  0.36575653253E+03  0.36723635108E+03  0.00000000000E+00 0.  1.
       -1    1    1    2    0  502  0.17351465832E+02 -0.16649466160E+02 -0.27583959748E+02  0.36594438448E+02  0.00000000000E+00 0.  1.
</event>
<event>
 5   1  0.6181100E+00  0.8042352E+02  0.7957747E-01  0.1326430E+00
       -2   -1    0    0    0  501  0.00000000000E+00  0.00000000000E+00  0.15383864967E+03  0.15383864967E+03  0.00000000000E+00 0.  1.
        1   -1    0    0  501    0  0.00000000000E+00  0.00000000000E+00 -0.10510919549E+02  0.10510919549E+02  0.00000000000E+00 0. -1.
      -24    2    1    2    0    0  0.00000000000E+00  0.00000000000E+00  0.14332773012E+03  0.16434956922E+03  0.80423520695E+02 0.  0.
       11    1    3    3    0    0 -0.35061128823E+02 -0.14695638221E+02  0.44883120271E+02  0.58819546261E+02  0.00000000000E+00 0. -1.
      -12    1    3    3    0    0  0.35061128823E+02  0.14695638221E+02  0.98444609848E+02  0.10553002296E+03  0.00000000000E+00 0.  1.
</event>
<event>
 5   1  0.6181100E+00  0.8092339E+02  0.7957747E-01  0.1325101E+00
        1   -1    0    0  501    0  0.00000000000E+00  0.00000000000E+00  0.12694893064E+02  0.12694893064E+02  0.00000000000E+00 0. -1.
       -2   -1    0    0    0  501  0.00000000000E+00  0.00000000000E+00 -0.12896120789E+03  0.12896120789E+03  0.00000000000E+00 0.  1.
      -24    2    1    2    0    0  0.00000000000E+00  0.00000000000E+00 -0.11626631483E+03  0.14165610096E+03  0.80923389540E+02 0.  0.
       11    1    3    3    0    0 -0.70942013243E+00  0.29289605913E+02 -0.92831900161E+01  0.30733725910E+02  0.00000000000E+00 0. -1.
      -12    1    3    3    0    0  0.70942013243E+00 -0.29289605913E+02 -0.10698312481E+03  0.11092237505E+03  0.00000000000E+00 0.  1.
</event>
<event>
 4   3  0.6181100E+00  0.1813659E+03  0.7957747E-01  0.1172154E+00
       21   -1    0    0  503  502  0.00000000000E+00  0.00000000000E+00  0.82162264455E+02  0.82162264455E+02  0.00000000000E+00 0. -1.
       21   -1    0    0  501  503  0.00000000000E+00  0.00000000000E+00 -0.41364211961E+03  0.41364211961E+03  0.00000000000E+00 0.  1.
        6    1    1    2  501    0 -0.51940240236E+02 -0.16334169349E+02 -0.21018041514E+03  0.27761376146E+03  0.17300000000E+03 0.  1.
       -6    1    1    2    0  502  0.51940240236E+02  0.16334169349E+02 -0.12129944001E+03  0.21819062260E+03  0.17300000000E+03 0. -1.
</event>
<event>
 6   2  0.6181100E+00  0.8317528E+02  0.7957747E-01  0.1319247E+00
       21   -1    0    0  501  502  0.00000000000E+00  0.00000000000E+00  0.84324887587E+01  0.84324887587E+01  0.00000000000E+00 0.  1.
       -2   -1    0    0    0  501  0.00000000000E+00  0.00000000000E+00 -0.40326068248E+03  0.40326068248E+03  0.00000000000E+00 0.  1.
      -24    2    1    2    0    0  0.11690781729E+02 -0.20978101783E+02 -0.21954678619E+03  0.23477418708E+03  0.79632734839E+02 0.  0.
       11    1    3    3    0    0 -0.19614093134E+02  0.22166674918E+02 -0.69506663175E+02  0.75546345723E+02  0.00000000000E+00 0. -1.
      -12    1    3    3    0    0  0.31304874863E+02 -0.43144776701E+02 -0.15004012302E+03  0.15922784135E+03  0.00000000000E+00 0.  1.
       -1    1    1    2    0  502 -0.11690781729E+02  0.20978101783E+02 -0.17528140753E+03  0.17691898416E+03  0.00000000000E+00 0.  1.
</event>
<event>
 4   3  0.6181100E+00  0.1851034E+03  0.7957747E-01  0.1168745E+00
       21   -1    0    0  503  502  0.00000000000E+00  0.00000000000E+00  0.47825465307E+02  0.47825465307E+02  0.00000000000E+00 0.  1.
       21   -1    0    0  501  503  0.00000000000E+00  0.00000000000E+00 -0.87929266304E+03  0.87929266304E+03  0.00000000000E+00 0.  1.
        6    1    1    2  501    0  0.41369996368E+02  0.51213163183E+02 -0.61524072559E+03  0.64248300764E+03  0.17300000000E+03 0.  1.
       -6    1    1    2    0  502 -0.41369996368E+02 -0.51213163183E+02 -0.21622647214E+03  0.28463512070E+03  0.17300000000E+03 0.  1.
</event>
<event>
 5   1  0.6181100E+00  0.7842707E+02  0.7957747E-01  0.1331849E+00
        1   -1    0    0  501    0  0.00000000000E+00  0.00000000000E+00  0.42995444874E+02  0.42995444874E+02  0.00000000000E+00 0. -1.
       -2   -1    0    0    0  501  0.00000000000E+00  0.00000000000E+00 -0.35764285762E+02  0.35764285762E+02  0.00000000000E+00 0.  1.
      -24    2    1    2    0    0  0.00000000000E+00  0.00000000000E+00  0.72311591124E+01  0.78759730635E+02  0.78427071268E+02 0.  0.
       11    1    3    3    0    0 -0.13642310185E+02  0.15338058677E+02  0.37168864823E+02  0.42460489674E+02  0.00000000000E+00 0. -1.
      -12    1    3    3    0    0  0.13642310185E+02 -0.15338058677E+02 -0.29937705710E+02  0.36299240961E+02  0.00000000000E+00 0.  1.
</event>
<event>
 6   2  0.6181100E+00  0.8706589E+02  0.7957747E-01  0.1309610E+00
       21   -1    0    0  501  502  0.00000000000E+00  0.00000000000E+00  0.66204936674E+02  0.66204936674E+02  0.00000000000E+00 0.  1.
        1   -1    0    0  502    0  0.00000000000E+00  0.00000000000E+00 -0.90814148541E+02  0.90814148541E+02  0.00000000000E+00 0. -1.
      -24    2    1    2    0    0 -0.14603917204E+02  0.14227627946E+02  0.35137858224E+02  0.93888964202E+02  0.84644956871E+02 0.  0.
       11    1    3    3    0    0  0.27669719226E+02 -0.18512134903E+02  0.96900706173E+01  0.34672899638E+02  0.00000000000E+00 0. -1.
      -12    1    3    3    0    0 -0.42273636430E+02  0.32739762849E+02  0.25447787606E+02  0.59216064564E+02  0.00000000000E+00 0.  1.
        2    1    1    2  501    0  0.14603917204E+02 -0.14227627946E+02 -0.59747070091E+02  0.63130121013E+02  0.00000000000E+00 0. -1.
</event>
<event>
 6   2  0.6181100E+00  0.1267675E+03  0.7957747E-01  0.1235441E+00
       -2   -1    0    0    0  501  0.00000000000E+00  0.00000000000E+00  0.15966938941E+03  0.15966938941E+03  0.00000000000E+00 0.  1.
        1   -1    0    0  502    0  0.00000000000E+00  0.00000000000E+00 -0.78109284639E+02  0.78109284639E+02  0.00000000000E+00 0. -1.
      -24    2    1    2    0    0 -0.25469889668E+01 -0.94382667411E+02  0.62982271348E+02  0.14155128213E+03  0.84589738784E+02 0.  0.
       11    1    3    3    0    0  0.14475671244E+02 -0.10546335666E+03  0.52480020713E+02  0.11868537075E+03  0.00000000000E+00 0. -1.
      -12    1    3    3    0    0 -0.17022660210E+02  0.11080689247E+02  0.10502250636E+02  0.22865911380E+02  0.00000000000E+00 0.  1.
       21    1    1    2  502  501  0.25469889668E+01  0.94382667411E+02  0.18577833417E+02  0.96227391916E+02  0.00000000000E+00 0.  1.
</event>
<event>
 5   1  0.6181100E+00  0.7885387E+02  0.7957747E-01  0.1330675E+00
        3   -1    0    0  501    0  0.00000000000E+00  0.00000000000E+00  0.60440205066E+02  0.60440205066E+02  0.00000000000E+00 0. -1.
       -4   -1    0    0    0  501  0.00000000000E+00  0.00000000000E+00 -0.25719356866E+02  0.25719356866E+02  0.00000000000E+00 0.  1.
      -24    2    1    2    0    0  0.00000000000E+00  0.00000000000E+00  0.34720848200E+02  0.86159561932E+02  0.78853869991E+02 0.  0.
       11    1    3    3    0    0  0.29386383985E+02 -0.16628521401E+02  0.39603696613E+02  0.52043444094E+02  0.00000000000E+00 0. -1.
      -12    1    3    3    0    0 -0.29386383985E+02  0.16628521401E+02 -0.48828484127E+01  0.34116117838E+02  0.00000000000E+00 0.  1.
</event>
<event>
 5   1  0.6181100E+00  0.9113432E+02  0.7957747E-01  0.1300121E+00
        1   -1    0    0  501    0  0.00000000000E+00  0.00000000000E+00  0.18982843841E+02  0.18982843841E+02  0.00000000000E+00 0. -1.
       -2   -1    0    0    0  501  0.00000000000E+00  0.00000000000E+00 -0.10938118722E+03  0.10938118722E+03  0.00000000000E+00 0.  1.
      -24    2    1    2    0    0  0.00000000000E+00  0.00000000000E+00 -0.90398343381E+02  0.12836403106E+03  0.91134318371E+02 0.  0.
       11    1    3    3    0    0 -0.10319153045E+02 -0.17585704880E+02  0.12198868010E+02  0.23760351774E+02  0.00000000000E+00 0. -1.
      -12    1    3    3    0    0  0.10319153045E+02  0.17585704880E+02 -0.10259721139E+03  0.10460367929E+03  0.00000000000E+00 0.  1.
</event>
<event>
 6   2  0.6181100E+00  0.1096316E+03  0.7957747E-01  0.1263094E+00
        1   -1    0    0  502    0  0.00000000000E+00  0.00000000000E+00  0.55075539006E+02  0.55075539006E+02  0.00000000000E+00 0. -1.
       21   -1    0    0  501  502  0.00000000000E+00  0.00000000000E+00 -0.16454229579E+03  0.16454229579E+03  0.00000000000E+00 0. -1.
      -24    2    1    2    0    0 -0.68488785965E+02  0.13742294305E+02 -0.29690364334E+02  0.11358087309E+03  0.84495754578E+02 0.  0.
       11    1    3    3    0    0 -0.69655889085E+02  0.13729443033E+02 -0.54027645204E+02  0.89215620474E+02  0.00000000000E+00 0. -1.
      -12    1    3    3    0    0  0.11671031207E+01  0.12851272521E-01  0.24337280870E+02  0.24365252615E+02  0.00000000000E+00 0.  1.
        2    1    1    2  501    0  0.68488785965E+02 -0.13742294305E+02 -0.79776392453E+02  0.10603696171E+03  0.00000000000E+00 0. -1.
</event>
<event>
 5   1  0.6181100E+00  0.8099150E+02  0.7957747E-01  0.1324921E+00
       -2   -1    0    0    0  501  0.00000000000E+00  0.00000000000E+00  0.19328546267E+02  0.19328546267E+02  0.00000000000E+00 0.  1.
        1   -1    0    0  501    0  0.00000000000E+00  0.00000000000E+00 -0.84843727403E+02  0.84843727403E+02  0.00000000000E+00 0. -1.
      -24    2    1    2    0    0  0.00000000000E+00  0.00000000000E+00 -0.65515181136E+02  0.10417227367E+03  0.80991503520E+02 0.  0.
       11    1    3    3    0    0 -0.64944532199E+01 -0.19589764961E+02 -0.77571878236E+02  0.80270375026E+02  0.00000000000E+00 0. -1.
      -12    1    3    3    0    0  0.64944532199E+01  0.19589764961E+02  0.12056697100E+02  0.23901898645E+02  0.00000000000E+00 0.  1.
</event>
<event>
 5   1  0.6181100E+00  0.7895176E+02  0.7957747E-01  0.1330407E+00
       -4   -1    0    0    0  501  0.00000000000E+00  0.00000000000E+00  0.20373783185E+01  0.20373783185E+01  0.00000000000E+00 0.  1.
        3   -1    0    0  501    0  0.00000000000E+00  0.00000000000E+00 -0.76487772196E+03  0.76487772196E+03  0.00000000000E+00 0. -1.
      -24    2    1    2    0    0  0.00000000000E+00  0.00000000000E+00 -0.76284034364E+03  0.76691510028E+03  0.78951764692E+02 0.  0.
       11    1    3    3    0    0  0.12027966540E+02  0.27535554078E+02 -0.13272879851E+03  0.13608751843E+03  0.00000000000E+00 0. -1.
      -12    1    3    3    0    0 -0.12027966540E+02 -0.27535554078E+02 -0.63011154513E+03  0.63082758185E+03  0.00000000000E+00 0.  1.
</event>
<event>
 4   1  0.6181100E+00  0.4214712E+02  0.7957747E-01  0.1481346E+00
        1   -1    0    0  501    0  0.00000000000E+00  0.00000000000E+00  0.65079920049E+01  0.65079920049E+01  0.00000000000E+00 0. -1.
       -2   -1    0    0    0  501  0.00000000000E+00  0.00000000000E+00 -0.68238406158E+02  0.68238406158E+02  0.00000000000E+00 0.  1.
       11    1    1    2    0    0 -0.19083336528E+02 -0.36957738667E+01 -0.16428893079E+02  0.25450756478E+02  0.00000000000E+00 0. -1.
      -12    1    1    2    0    0  0.19083336528E+02  0.36957738667E+01 -0.45301521075E+02  0.49295641686E+02  0.00000000000E+00 0.  1.
</event>
<event>
 6   2  0.6181100E+00  0.8669470E+02  0.7957747E-01  0.1310504E+00
       -2   -1    0    0    0  501  0.00000000000E+00  0.00000000000E+00  0.37583717343E+03  0.37583717343E+03  0.00000000000E+00 0.  1.
       21   -1    0    0  501  502  0.00000000000E+00  0.00000000000E+00 -0.20918658959E+02  0.20918658959E+02  0.00000000000E+00 0.  1.
      -24    2    1    2    0    0 -0.19042105228E+02 -0.25038862063E+02  0.35486220924E+03  0.36529872579E+03  0.80786292992E+02 0.  0.
       11    1    3    3    0    0  0.23702436376E+02  0.15039514521E+02  0.11059675432E+03  0.11410361324E+03  0.00000000000E+00 0. -1.
      -12    1    3    3    0    0 -0.42744541604E+02 -0.40078376583E+02  0.24426545492E+03  0.25119511256E+03  0.00000000000E+00 0.  1.
       -1    1    1    2    0  502  0.19042105228E+02  0.25038862063E+02  0.56305228416E-01  0.31457106593E+02  0.00000000000E+00 0.  1.
</event>
<event>
 5   1  0.6181100E+00  0.8115114E+02  0.7957747E-01  0.1324500E+00
        1   -1    0    0  501    0  0.00000000000E+00  0.00000000000E+00  0.15647273046E+02  0.15647273046E+02  0.00000000000E+00 0. -1.
       -2   -1    0    0    0  501  0.00000000000E+00  0.00000000000E+00 -0.10521813262E+03  0.10521813262E+03  0.00000000000E+00 0.  1.
      -24    2    1    2    0    0  0.00000000000E+00  0.00000000000E+00 -0.89570859570E+02  0.12086540566E+03  0.81151139252E+02 0.  0.
       11    1    3    3    0    0 -0.21210224373E+02 -0.22176591786E+01  0.66272151513E+01  0.22331851935E+02  0.00000000000E+00 0. -1.
      -12    1    3    3    0    0  0.21210224373E+02  0.22176591786E+01 -0.96198074722E+02  0.98533553728E+02  0.00000000000E+00 0.  1.
</event>
<event>
 4   3  0.6181100E+00  0.1848804E+03  0.7957747E-01  0.1168945E+00
       21   -1    0    0  503  502  0.00000000000E+00  0.00000000000E+00  0.17839885129E+04  0.17839885129E+04  0.00000000000E+00 0.  1.
       21   -1    0    0  501  503  0.00000000000E+00  0.00000000000E+00 -0.35334666394E+02  0.35334666394E+02  0.00000000000E+00 0. -1.
        6    1    1    2  501    0  0.53429695443E+02  0.37376651489E+02  0.25886585198E+03  0.31810733370E+03  0.17300000000E+03 0. -1.
       -6    1    1    2    0  502 -0.53429695443E+02 -0.37376651489E+02  0.14897879946E+04  0.15012158456E+04  0.17300000000E+03 0.  1.
</event>
<event>
 5   1  0.6181100E+00  0.8147407E+02  0.7957747E-01  0.1323650E+00
        1   -1    0    0  501    0  0.00000000000E+00  0.00000000000E+00  0.68680443541E+02  0.68680443541E+02  0.00000000000E+00 0. -1.
       -2   -1    0    0    0  501  0.00000000000E+00  0.00000000000E+00 -0.24162714134E+02  0.24162714134E+02  0.00000000000E+00 0.  1.
      -24    2    1    2    0    0  0.00000000000E+00  0.00000000000E+00  0.44517729407E+02  0.92843157674E+02  0.81474067625E+02 0.  0.
       11    1    3    3    0    0  0.98735226069E+01  0.23012864786E+02  0.58873970370E+02  0.63978299301E+02  0.00000000000E+00 0. -1.
      -12    1    3    3    0    0 -0.98735226069E+01 -0.23012864786E+02 -0.14356240963E+02  0.28864858373E+02  0.00000000000E+00 0.  1.
</event>
<event>
 5   1  0.6181100E+00  0.8219534E+02  0.7957747E-01  0.1321768E+00
        1   -1    0    0  501    0  0.00000000000E+00  0.00000000000E+00  0.18891677606E+02  0.18891677606E+02  0.00000000000E+00 0. -1.
       -2   -1    0    0    0  501  0.00000000000E+00  0.00000000000E+00 -0.89405421122E+02  0.89405421122E+02  0.00000000000E+00 0.  1.
      -24    2    1    2    0    0  0.00000000000E+00  0.00000000000E+00 -0.70513743515E+02  0.10829709873E+03  0.82195337875E+02 0.  0.
       11    1    3    3    0    0  0.15188858262E+02  0.37831943907E+02 -0.42110831257E+02  0.58611257487E+02  0.00000000000E+00 0. -1.
      -12    1    3    3    0    0 -0.15188858262E+02 -0.37831943907E+02 -0.28402912259E+02  0.49685841241E+02  0.00000000000E+00 0.  1.
</event>
<event>
 5   1  0.6181100E+00  0.7994348E+02  0.7957747E-01  0.1327717E+00
       -2   -1    0    0    0  501  0.00000000000E+00  0.00000000000E+00  0.58480535676E+03  0.58480535676E+03  0.00000000000E+00 0.  1.
        1   -1    0    0  501    0  0.00000000000E+00  0.00000000000E+00 -0.27320881927E+01  0.27320881927E+01  0.00000000000E+00 0. -1.
      -24    2    1    2    0    0  0.00000000000E+00  0.00000000000E+00  0.58207326857E+03  0.58753744496E+03  0.79943475288E+02 0.  0.
       11    1    3    3    0    0 -0.29457162626E+02  0.89760293266E+01  0.10374251459E+03  0.10821646301E+03  0.00000000000E+00 0. -1.
      -12    1    3    3    0    0  0.29457162626E+02 -0.89760293266E+01  0.47833075398E+03  0.47932098195E+03  0.00000000000E+00 0.  1.
</event>
<event>
 4   3  0.6181100E+00  0.2083675E+03  0.7957747E-01  0.1149340E+00
       21   -1    0    0  503  502  0.00000000000E+00  0.00000000000E+00  0.26662631899E+02  0.26662631899E+02  0.00000000000E+00 0.  1.
       21   -1    0    0  501  503  0.00000000000E+00  0.00000000000E+00 -0.26633339708E+04  0.26633339708E+04  0.00000000000E+00 0.  1.
        6    1    1    2  501    0  0.17866246210E+02 -0.11475538532E+03 -0.21567691558E+04  0.21668110653E+04  0.17300000000E+03 0.  1.
       -6    1    1    2    0  502 -0.17866246210E+02  0.11475538532E+03 -0.47990218302E+03  0.52318553734E+03  0.17300000000E+03 0.  1.
</event>
<event>
 6   2  0.6181100E+00  0.9025563E+02  0.7957747E-01  0.1302123E+00
        1   -1    0    0  502    0  0.00000000000E+00  0.00000000000E+00  0.61959265326E+02  0.61959265326E+02  0.00000000000E+00 0. -1.
       21   -1    0    0  501  502  0.00000000000E+00  0.00000000000E+00 -0.14250626360E+03  0.14250626360E+03  0.00000000000E+00 0.  1.
      -24    2    1    2    0    0 -0.26281875897E+02  0.23219439085E+02  0.24662934954E+02  0.93564629912E+02  0.83163695553E+02 0.  0.
       11    1    3    3    0    0 -0.29214384878E+02 -0.26914612109E+02  0.14770981234E+02  0.42379930573E+02  0.00000000000E+00 0. -1.
      -12    1    3    3    0    0  0.29325089814E+01  0.50134051194E+02  0.98919537200E+01  0.51184699339E+02  0.00000000000E+00 0.  1.
        2    1    1    2  501    0  0.26281875897E+02 -0.23219439085E+02 -0.10520993323E+03  0.11090089901E+03  0.00000000000E+00 0. -1.
</event>
<event>
 5   1  0.6181100E+00  0.8075687E+02  0.7957747E-01  0.1325543E+00
        3   -1    0    0  501    0  0.00000000000E+00  0.00000000000E+00  0.42003102139E+01  0.42003102139E+01  0.00000000000E+00 0. -1.
       -4   -1    0    0    0  501  0.00000000000E+00  0.00000000000E+00 -0.38816604786E+03  0.38816604786E+03  0.00000000000E+00 0.  1.
      -24    2    1    2    0    0  0.00000000000E+00  0.00000000000E+00 -0.38396573765E+03  0.39236635808E+03  0.80756865108E+02 0.  0.
       11    1    3    3    0    0 -0.10546353475E+02  0.22850369311E+01 -0.29353123265E+01  0.11183158044E+02  0.00000000000E+00 0. -1.
      -12    1    3    3    0    0  0.10546353475E+02 -0.22850369311E+01 -0.38103042532E+03  0.38118320003E+03  0.00000000000E+00 0.  1.
</event>
<event>
 5   1  0.6181100E+00  0.8070370E+02  0.7957747E-01  0.1325684E+00
        1   -1    0    0  501    0  0.00000000000E+00  0.00000000000E+00  0.77726241100E+01  0.77726241100E+01  0.00000000000E+00 0. -1.
       -2   -1    0    0    0  501  0.00000000000E+00  0.00000000000E+00 -0.20948804965E+03  0.20948804965E+03  0.00000000000E+00 0.  1.
      -24    2    1    2    0    0  0.00000000000E+00  0.00000000000E+00 -0.20171542554E+03  0.21726067376E+03  0.80703701662E+02 0.  0.
       11    1    3    3    0    0  0.11487887435E+02  0.62542697151E+01  0.19072161602E+01  0.13218355452E+02  0.00000000000E+00 0. -1.
      -12    1    3    3    0    0 -0.11487887435E+02 -0.62542697151E+01 -0.20362264170E+03  0.20404231831E+03  0.00000000000E+00 0.  1.
</event>
<event>
 6   2  0.6181100E+00  0.8997413E+02  0.7957747E-01  0.1302769E+00
        3   -1    0    0  502    0  0.00000000000E+00  0.00000000000E+00  0.22672724761E+02  0.22672724761E+02  0.00000000000E+00 0. -1.
       21   -1    0    0  501  502  0.00000000000E+00  0.00000000000E+00 -0.15367137862E+03  0.15367137862E+03  0.00000000000E+00 0.  1.
      -24    2    1    2    0    0 -0.15817621293E+02 -0.22242763807E+02 -0.10865072264E+03  0.14106850679E+03  0.85734511093E+02 0.  0.
       11    1    3    3    0    0 -0.23618389912E+02 -0.17432137724E+02  0.25733918385E+01  0.29467441579E+02  0.00000000000E+00 0. -1.
      -12    1    3    3    0    0  0.78007686194E+01 -0.48106260827E+01 -0.11122411448E+03  0.11160106521E+03  0.00000000000E+00 0.  1.
        4    1    1    2  501    0  0.15817621293E+02  0.22242763807E+02 -0.22347931218E+02  0.35275596591E+02  0.00000000000E+00 0. -1.
</event>
<event>
 5   1  0.6181100E+00  0.9329884E+02  0.7957747E-01  0.1295298E+00
       -2   -1    0    0    0  501  0.00000000000E+00  0.00000000000E+00  0.53884088271E+02  0.53884088271E+02  0.00000000000E+00 0.  1.
        1   -1    0    0  501    0  0.00000000000E+00  0.00000000000E+00 -0.40386103567E+02  0.40386103567E+02  0.00000000000E+00 0. -1.
      -24    2    1    2    0    0  0.00000000000E+00  0.00000000000E+00  0.13497984704E+02  0.94270191837E+02  0.93298839639E+02 0.  0.
       11    1    3    3    0    0  0.34132419908E+02  0.32100001443E+01 -0.25216466907E+02  0.42558153073E+02  0.00000000000E+00 0. -1.
      -12    1    3    3    0    0 -0.34132419908E+02 -0.32100001443E+01  0.38714451611E+02  0.51712038765E+02  0.00000000000E+00 0.  1.
</event>
<event>
 5   1  0.6181100E+00  0.8429059E+02  0.7957747E-01  0.1316424E+00
        1   -1    0    0  501    0  0.00000000000E+00  0.00000000000E+00  0.44964522917E+01  0.44964522917E+01  0.00000000000E+00 0. -1.
       -2   -1    0    0    0  501  0.00000000000E+00  0.00000000000E+00 -0.39502826844E+03  0.39502826844E+03  0.00000000000E+00 0.  1.
      -24    2    1    2    0    0  0.00000000000E+00  0.00000000000E+00 -0.39053181615E+03  0.39952472073E+03  0.84290586969E+02 0.  0.
       11    1    3    3    0    0 -0.34844206390E+02  0.15323956901E+02 -0.10951740244E+03  0.11594396841E+03  0.00000000000E+00 0. -1.
      -12    1    3    3    0    0  0.34844206390E+02 -0.15323956901E+02 -0.28101441371E+03  0.28358075232E+03  0.00000000000E+00 0.  1.
</event>
<event>
 6   2  0.6181100E+00  0.8585249E+02  0.7957747E-01  0.1312553E+00
        3   -1    0    0  502    0  0.00000000000E+00  0.00000000000E+00  0.74883470121E+02  0.74883470121E+02  0.00000000000E+00 0. -1.
       -4   -1    0    0    0  501  0.00000000000E+00  0.00000000000E+00 -0.39468654343E+02  0.39468654343E+02  0.00000000000E+00 0.  1.
      -24    2    1    2    0    0 -0.97663747892E+01  0.20407840215E+02  0.24808753856E+02  0.89365116475E+02  0.82817798545E+02 0.  0.
       11    1    3    3    0    0  0.12876999969E+02 -0.26421630460E+02 -0.43824310797E+01  0.29717425638E+02  0.00000000000E+00 0. -1.
      -12    1    3    3    0    0 -0.22643374759E+02  0.46829470676E+02  0.29191184936E+02  0.59647690837E+02  0.00000000000E+00 0.  1.
       21    1    1    2  502  501  0.97663747892E+01 -0.20407840215E+02  0.10606061922E+02  0.24987007990E+02  0.00000000000E+00 0. -1.
</event>
<event>
 5   1  0.6181100E+00  0.8071628E+02  0.7957747E-01  0.1325651E+00
        1   -1    0    0  501    0  0.00000000000E+00  0.00000000000E+00  0.76354902852E+02  0.76354902852E+02  0.00000000000E+00 0. -1.
       -2   -1    0    0    0  501  0.00000000000E+00  0.00000000000E+00 -0.21331695002E+02  0.21331695002E+02  0.00000000000E+00 0.  1.
      -24    2    1    2    0    0  0.00000000000E+00  0.00000000000E+00  0.55023207849E+02  0.97686597854E+02  0.80716280875E+02 0.  0.
       11    1    3    3    0    0  0.24630196886E+02  0.25637789251E+02  0.50628157139E+02  0.61863988973E+02  0.00000000000E+00 0. -1.
      -12    1    3    3    0    0 -0.24630196886E+02 -0.25637789251E+02  0.43950507102E+01  0.35822608881E+02  0.00000000000E+00 0.  1.
</event>
<event>
 5   1  0.6181100E+00  0.8112182E+02  0.7957747E-01  0.1324577E+00
       -2   -1    0    0    0  501  0.00000000000E+00  0.00000000000E+00  0.26531994152E+02  0.26531994152E+02  0.00000000000E+00 0.  1.
        1   -1    0    0  501    0  0.00000000000E+00  0.00000000000E+00 -0.62007673080E+02  0.62007673080E+02  0.00000000000E+00 0. -1.
      -24    2    1    2    0    0  0.00000000000E+00  0.00000000000E+00 -0.35475678928E+02  0.88539667233E+02  0.81121815058E+02 0.  0.
       11    1    3    3    0    0 -0.12301243983E+02 -0.38032724193E+02 -0.10225228334E+02  0.41259714100E+02  0.00000000000E+00 0. -1.
      -12    1    3    3    0    0  0.12301243983E+02  0.38032724193E+02 -0.25250450594E+02  0.47279953133E+02  0.00000000000E+00 0.  1.
</event>
<event>
 6   2  0.6181100E+00  0.9837916E+02  0.7957747E-01  0.1284534E+00
       21   -1    0    0  501  502  0.00000000000E+00  0.00000000000E+00  0.15247261522E+03  0.15247261522E+03  0.00000000000E+00 0. -1.
       -2   -1    0    0    0  501  0.00000000000E+00  0.00000000000E+00 -0.35284492569E+02  0.35284492569E+02  0.00000000000E+00 0.  1.
      -24    2    1    2    0    0 -0.47670123999E+02  0.17270990584E+01  0.86811645392E+02  0.13120488445E+03  0.86040899202E+02 0.  0.
       11    1    3    3    0    0 -0.43435785822E+02 -0.48571153566E+00  0.10434853070E+03  0.11302884262E+03  0.00000000000E+00 0. -1.
      -12    1    3    3    0    0 -0.42343381778E+01  0.22128105940E+01 -0.17536885304E+02  0.18176041833E+02  0.00000000000E+00 0.  1.
       -1    1    1    2    0  502  0.47670123999E+02 -0.17270990584E+01  0.30376477255E+02  0.56552223331E+02  0.00000000000E+00 0.  1.
</event>
<event>
 5   1  0.6181100E+00  0.8083064E+02  0.7957747E-01  0.1325347E+00
        1   -1    0    0  501    0  0.00000000000E+00  0.00000000000E+00  0.10108716701E+02  0.10108716701E+02  0.00000000000E+00 0. -1.
       -2   -1    0    0    0  501  0.00000000000E+00  0.00000000000E+00 -0.16158314549E+03  0.16158314549E+03  0.00000000000E+00 0.  1.
      -24    2    1    2    0    0  0.00000000000E+00  0.00000000000E+00 -0.15147442879E+03  0.17169186219E+03  0.80830643730E+02 0.  0.
       11    1    3    3    0    0 -0.17194783964E+02  0.25350950783E+02 -0.19737348137E+02  0.36440282829E+02  0.00000000000E+00 0. -1.
      -12    1    3    3    0    0  0.17194783964E+02 -0.25350950783E+02 -0.13173708065E+03  0.13525157936E+03  0.00000000000E+00 0.  1.
</event>
<event>
 5   1  0.6181100E+00  0.7219279E+02  0.7957747E-01  0.1350021E+00
       -4   -1    0    0    0  501  0.00000000000E+00  0.00000000000E+00  0.87799881545E+01  0.87799881545E+01  0.00000000000E+00 0.  1.
        3   -1    0    0  501    0  0.00000000000E+00  0.00000000000E+00 -0.14839994510E+03  0.14839994510E+03  0.00000000000E+00 0. -1.
      -24    2    1    2    0    0  0.00000000000E+00  0.00000000000E+00 -0.13961995695E+03  0.15717993326E+03  0.72192790779E+02 0.  0.
       11    1    3    3    0    0  0.12186964627E+02 -0.25714964928E+02 -0.11816046136E+03  0.12153878458E+03  0.00000000000E+00 0. -1.
      -12    1    3    3    0    0 -0.12186964627E+02  0.25714964928E+02 -0.21459495583E+02  0.35641148674E+02  0.00000000000E+00 0.  1.
</event>
<event>
 6   2  0.6181100E+00  0.8385042E+02  0.7957747E-01  0.1317532E+00
       21   -1    0    0  501  502  0.00000000000E+00  0.00000000000E+00  0.83178469152E+02  0.83178469152E+02  0.00000000000E+00 0.  1.
       -4   -1    0    0    0  501  0.00000000000E+00  0.00000000000E+00 -0.16248704428E+03  0.16248704428E+03  0.00000000000E+00 0.  1.
      -24    2    1    2    0    0  0.10450924665E+02  0.19666798771E+02 -0.14983754541E+03  0.17170376352E+03  0.80838651600E+02 0.  0.
       11    1    3    3    0    0  0.25610401897E+02 -0.16349064903E+02 -0.20653250347E+02  0.36738826307E+02  0.00000000000E+00 0. -1.
      -12    1    3    3    0    0 -0.15159477232E+02  0.36015863674E+02 -0.12918429507E+03  0.13496493722E+03  0.00000000000E+00 0.  1.
       -3    1    1    2    0  502 -0.10450924665E+02 -0.19666798771E+02  0.70528970285E+02  0.73961749910E+02  0.00000000000E+00 0.  1.
</event>
<event>
 5   1  0.6181100E+00  0.7741312E+02  0.7957747E-01  0.1334671E+00
        1   -1    0    0  501    0  0.00000000000E+00  0.00000000000E+00  0.32063345768E+03  0.32063345768E+03  0.00000000000E+00 0. -1.
       -2   -1    0    0    0  501  0.00000000000E+00  0.00000000000E+00 -0.46726183786E+01  0.46726183786E+01  0.00000000000E+00 0.  1.
      -24    2    1    2    0    0  0.00000000000E+00  0.00000000000E+00  0.31596083930E+03  0.32530607606E+03  0.77413120003E+02 0.  0.
       11    1    3    3    0    0  0.98886191084E+01 -0.36888305853E+02  0.13151454760E+03  0.13694746484E+03  0.00000000000E+00 0. -1.
      -12    1    3    3    0    0 -0.98886191084E+01  0.36888305853E+02  0.18444629171E+03  0.18835861122E+03  0.00000000000E+00 0.  1.
</event>
<event>
 5   1  0.6181100E+00  0.9568900E+02  0.7957747E-01  0.1290140E+00
        3   -1    0    0  501    0  0.00000000000E+00  0.00000000000E+00  0.22095076977E+03  0.22095076977E+03  0.00000000000E+00 0. -1.
       -4   -1    0    0    0  501  0.00000000000E+00  0.00000000000E+00 -0.10360209935E+02  0.10360209935E+02  0.00000000000E+00 0.  1.
      -24    2    1    2    0    0  0.00000000000E+00  0.00000000000E+00  0.21059055984E+03  0.23131097971E+03  0.95689003759E+02 0.  0.
       11    1    3    3    0    0  0.41783391000E+02 -0.16891165195E+02  0.14411816294E+03  0.15100068912E+03  0.00000000000E+00 0. -1.
      -12    1    3    3    0    0 -0.41783391000E+02  0.16891165195E+02  0.66472396899E+02  0.80310290590E+02  0.00000000000E+00 0.  1.
</event>
<event>
 5   1  0.6181100E+00  0.7904070E+02  0.7957747E-01  0.1330164E+00
       -4   -1    0    0    0  501  0.00000000000E+00  0.00000000000E+00  0.12262378140E+03  0.12262378140E+03  0.00000000000E+00 0.  1.
        3   -1    0    0  501    0  0.00000000000E+00  0.00000000000E+00 -0.12736991420E+02  0.12736991420E+02  0.00000000000E+00 0. -1.
      -24    2    1    2    0    0  0.00000000000E+00  0.00000000000E+00  0.10988678998E+03  0.13536077282E+03  0.79040699680E+02 0.  0.
       11    1    3    3    0    0  0.29727189933E+02  0.25911232658E+02  0.59396095662E+02  0.71295118901E+02  0.00000000000E+00 0. -1.
      -12    1    3    3    0    0 -0.29727189933E+02 -0.25911232658E+02  0.50490694315E+02  0.64065653915E+02  0.00000000000E+00 0.  1.
</event>
<event>
 6   2  0.6181100E+00  0.8853412E+02  0.7957747E-01  0.1306119E+00
       -2   -1    0    0    0  501  0.00000000000E+00  0.00000000000E+00  0.20499379101E+02  0.20499379101E+02  0.00000000000E+00 0.  1.
        1   -1    0    0  502    0  0.00000000000E+00  0.00000000000E+00 -0.33167783547E+03  0.33167783547E+03  0.00000000000E+00 0. -1.
      -24    2    1    2    0    0 -0.34550224467E+02 -0.44968818829E+02 -0.26386820382E+03  0.27832484376E+03  0.67988065060E+02 0.  0.
       11    1    3    3    0    0 -0.52752442502E+02 -0.35554823282E+02 -0.23093079102E+03  0.23953287017E+03  0.00000000000E+00 0. -1.
      -12    1    3    3    0    0  0.18202218035E+02 -0.94139955473E+01 -0.32937412797E+02  0.38791973594E+02  0.00000000000E+00 0.  1.
       21    1    1    2  502  501  0.34550224467E+02  0.44968818829E+02 -0.47310252546E+02  0.73852370805E+02  0.00000000000E+00 0.  1.
</event>
<event>
 6   2  0.6181100E+00  0.8653898E+02  0.7957747E-01  0.1310881E+00
       -2   -1    0    0    0  501  0.00000000000E+00  0.00000000000E+00  0.21418089977E+02  0.21418089977E+02  0.00000000000E+00 0.  1.
        1   -1    0    0  502    0  0.00000000000E+00  0.00000000000E+00 -0.20780583417E+03  0.20780583417E+03  0.00000000000E+00 0. -1.
      -24    2    1    2    0    0 -0.17680682092E+02  0.27100994611E+02 -0.79383236342E+02  0.11743378537E+03  0.80261605423E+02 0.  0.
       11    1    3    3    0    0  0.16551838391E+02  0.37181979212E+02 -0.69271149489E+02  0.80342735102E+02  0.00000000000E+00 0. -1.
      -12    1    3    3    0    0 -0.34232520483E+02 -0.10080984601E+02 -0.10112086853E+02  0.37091050264E+02  0.00000000000E+00 0.  1.
       21    1    1    2  502  501  0.17680682092E+02 -0.27100994611E+02 -0.10700450785E+03  0.11179013878E+03  0.00000000000E+00 0.  1.
</event>
<event>
 5   1  0.6181100E+00  0.7770746E+02  0.7957747E-01  0.1333847E+00
        1   -1    0    0  501    0  0.00000000000E+00  0.00000000000E+00  0.10366232257E+02  0.10366232257E+02  0.00000000000E+00 0. -1.
       -2   -1    0    0    0  501  0.00000000000E+00  0.00000000000E+00 -0.14562785959E+03  0.14562785959E+03  0.00000000000E+00 0.  1.
      -24    2    1    2    0    0  0.00000000000E+00  0.00000000000E+00 -0.13526162733E+03  0.15599409185E+03  0.77707456931E+02 0.  0.
       11    1    3    3    0    0  0.14266433449E+02  0.33365285658E+01  0.46081871900E+01  0.15359001771E+02  0.00000000000E+00 0. -1.
      -12    1    3    3    0    0 -0.14266433449E+02 -0.33365285658E+01 -0.13986981452E+03  0.14063509008E+03  0.00000000000E+00 0.  1.
</event>
<event>
 5   1  0.6181100E+00  0.8079695E+02  0.7957747E-01  0.1325437E+00
       -2   -1    0    0    0  501  0.00000000000E+00  0.00000000000E+00  0.66176637703E+03  0.66176637703E+03  0.00000000000E+00 0.  1.
        1   -1    0    0  501    0  0.00000000000E+00  0.00000000000E+00 -0.24661824414E+01  0.24661824414E+01  0.00000000000E+00 0. -1.
      -24    2    1    2    0    0  0.00000000000E+00  0.00000000000E+00  0.65930019459E+03  0.66423255948E+03  0.80796945965E+02 0.  0.
       11    1    3    3    0    0  0.25004801368E+02  0.23455272007E+02  0.15397289885E+03  0.15774360036E+03  0.00000000000E+00 0. -1.
      -12    1    3    3    0    0 -0.25004801368E+02 -0.23455272007E+02  0.50532729575E+03  0.50648895911E+03  0.00000000000E+00 0.  1.
</event>
<event>
 4   1  0.6181100E+00  0.1215143E+03  0.7957747E-01  0.1243374E+00
       -2   -1    0    0    0  501  0.00000000000E+00  0.00000000000E+00  0.84952434586E+01  0.84952434586E+01  0.00000000000E+00 0.  1.
        1   -1    0    0  501    0  0.00000000000E+00  0.00000000000E+00 -0.43452928176E+03  0.43452928176E+03  0.00000000000E+00 0. -1.
       11    1    1    2    0    0  0.31352237791E+02  0.48718702343E+02 -0.14629102761E+03  0.15734528760E+03  0.00000000000E+00 0. -1.
      -12    1    1    2    0    0 -0.31352237791E+02 -0.48718702343E+02 -0.27974301069E+03  0.28567923761E+03  0.00000000000E+00 0.  1.
</event>
<event>
 6   2  0.6181100E+00  0.1051617E+03  0.7957747E-01  0.1271250E+00
       21   -1    0    0  501  502  0.00000000000E+00  0.00000000000E+00  0.42118100648E+03  0.42118100648E+03  0.00000000000E+00 0.  1.
        1   -1    0    0  502    0  0.00000000000E+00  0.00000000000E+00 -0.26066539508E+02  0.26066539508E+02  0.00000000000E+00 0. -1.
      -24    2    1    2    0    0  0.59174518641E+02 -0.34036928604E+02  0.10277375348E+03  0.14704223469E+03  0.79992738505E+02 0.  0.
       11    1    3    3    0    0 -0.16464224261E+02 -0.21415763306E+02  0.16677253944E+02  0.31746439133E+02  0.00000000000E+00 0. -1.
      -12    1    3    3    0    0  0.75638742901E+02 -0.12621165298E+02  0.86096499536E+02  0.11529579556E+03  0.00000000000E+00 0.  1.
        2    1    1    2  501    0 -0.59174518641E+02  0.34036928604E+02  0.29234071350E+03  0.30020531130E+03  0.00000000000E+00 0. -1.
</event>
<event>
 5   1  0.6181100E+00  0.7919903E+02  0.7957747E-01  0.1329732E+00
        1   -1    0    0  501    0  0.00000000000E+00  0.00000000000E+00  0.49964654195E+01  0.49964654195E+01  0.00000000000E+00 0. -1.
       -2   -1    0    0    0  501  0.00000000000E+00  0.00000000000E+00 -0.31384621398E+03  0.31384621398E+03  0.00000000000E+00 0.  1.
      -24    2    1    2    0    0  0.00000000000E+00  0.00000000000E+00 -0.30884974856E+03  0.31884267940E+03  0.79199034216E+02 0.  0.
       11    1    3    3    0    0 -0.18188740295E+02  0.12936264293E+02 -0.22739604013E+02  0.31863251530E+02  0.00000000000E+00 0. -1.
      -12    1    3    3    0    0  0.18188740295E+02 -0.12936264293E+02 -0.28611014454E+03  0.28697942787E+03  0.00000000000E+00 0.  1.
</event>
<event>
 4   3  0.6181100E+00  0.1796393E+03  0.7957747E-01  0.1173760E+00
       21   -1    0    0  501  502  0.00000000000E+00  0.00000000000E+00  0.14540866099E+03  0.14540866099E+03  0.00000000000E+00 0.  1.
       21   -1    0    0  502  503  0.00000000000E+00  0.00000000000E+00 -0.32399400962E+03  0.32399400962E+03  0.00000000000E+00 0.  1.
        6    1    1    2  501    0 -0.42848395082E+02  0.22478996124E+02 -0.22102340419E+03  0.28481860091E+03  0.17300000000E+03 0.  1.
       -6    1    1    2    0  503  0.42848395082E+02 -0.22478996124E+02  0.42438055558E+02  0.18458406970E+03  0.17300000000E+03 0.  1.
</event>
<event>
 5   1  0.6181100E+00  0.8230870E+02  0.7957747E-01  0.1321475E+00
       -2   -1    0    0    0  501  0.00000000000E+00  0.00000000000E+00  0.52981381673E+01  0.52981381673E+01  0.00000000000E+00 0.  1.
        1   -1    0    0  501    0  0.00000000000E+00  0.00000000000E+00 -0.31967466556E+03  0.31967466556E+03  0.00000000000E+00 0. -1.
      -24    2    1    2    0    0  0.00000000000E+00  0.00000000000E+00 -0.31437652739E+03  0.32497280373E+03  0.82308700554E+02 0.  0.
       11    1    3    3    0    0  0.41137102291E+02 -0.20141484934E+00 -0.15255218349E+03  0.15800148873E+03  0.00000000000E+00 0. -1.
      -12    1    3    3    0    0 -0.41137102291E+02  0.20141484934E+00 -0.16182434390E+03  0.16697131500E+03  0.00000000000E+00 0.  1.
</event>
<event>
 6   2  0.6181100E+00  0.8801632E+02  0.7957747E-01  0.1307341E+00
        1   -1    0    0  502    0  0.00000000000E+00  0.00000000000E+00  0.71655037969E+02  0.71655037969E+02  0.00000000000E+00 0. -1.
       -2   -1    0    0    0  501  0.00000000000E+00  0.00000000000E+00 -0.85429521601E+02  0.85429521601E+02  0.00000000000E+00 0.  1.
      -24    2    1    2    0    0 -0.34455825060E+01  0.33285856293E+02 -0.55152400037E+02  0.10386846958E+03  0.81406704114E+02 0.  0.
       11    1    3    3    0    0 -0.34736577863E+02 -0.85421684586E+01 -0.21739409359E+02  0.41859292910E+02  0.00000000000E+00 0. -1.
      -12    1    3    3    0    0  0.31290995357E+02  0.41828024751E+02 -0.33412990678E+02  0.62009176668E+02  0.00000000000E+00 0.  1.
       21    1    1    2  502  501  0.34455825060E+01 -0.33285856293E+02  0.41377916406E+02  0.53216089992E+02  0.00000000000E+00 0. -1.
</event>
<event>
 5   1  0.6181100E+00  0.8041092E+02  0.7957747E-01  0.1326464E+00
       -4   -1    0    0    0  501  0.00000000000E+00  0.00000000000E+00  0.32290606015E+03  0.32290606015E+03  0.00000000000E+00 0.  1.
        3   -1    0    0  501    0  0.00000000000E+00  0.00000000000E+00 -0.50060343492E+01  0.50060343492E+01  0.00000000000E+00 0. -1.
      -24    2    1    2    0    0  0.00000000000E+00  0.00000000000E+00  0.31790002580E+03  0.32791209450E+03  0.80410915395E+02 0.  0.
       11    1    3    3    0    0 -0.10446713338E+02 -0.12927465348E+02  0.96597813628E+01  0.19224061898E+02  0.00000000000E+00 0. -1.
      -12    1    3    3    0    0  0.10446713338E+02  0.12927465348E+02  0.30824024444E+03  0.30868803260E+03  0.00000000000E+00 0.  1.
</event>
<event>
 5   1  0.6181100E+00  0.8070925E+02  0.7957747E-01  0.1325669E+00
        1   -1    0    0  501    0  0.00000000000E+00  0.00000000000E+00  0.25371835105E+02  0.25371835105E+02  0.00000000000E+00 0. -1.
       -2   -1    0    0    0  501  0.00000000000E+00  0.00000000000E+00 -0.64185171665E+02  0.64185171665E+02  0.00000000000E+00 0.  1.
      -24    2    1    2    0    0  0.00000000000E+00  0.00000000000E+00 -0.38813336560E+02  0.89557006770E+02  0.80709245856E+02 0.  0.
       11    1    3    3    0    0 -0.60822030225E+01  0.10815153605E+02  0.23202573033E+02  0.26311977054E+02  0.00000000000E+00 0. -1.
      -12    1    3    3    0    0  0.60822030225E+01 -0.10815153605E+02 -0.62015909593E+02  0.63245029716E+02  0.00000000000E+00 0.  1.
</event>
<event>
 5   1  0.6181100E+00  0.8165767E+02  0.7957747E-01  0.1323169E+00
        1   -1    0    0  501    0  0.00000000000E+00  0.00000000000E+00  0.81220000898E+02  0.81220000898E+02  0.00000000000E+00 0. -1.
       -2   -1    0    0    0  501  0.00000000000E+00  0.00000000000E+00 -0.20524425097E+02  0.20524425097E+02  0.00000000000E+00 0.  1.
      -24    2    1    2    0    0  0.00000000000E+00  0.00000000000E+00  0.60695575801E+02  0.10174442599E+03  0.81657671405E+02 0.  0.
       11    1    3    3    0    0 -0.21433760717E+02  0.35629994349E-01  0.73646277974E+02  0.76701901068E+02  0.00000000000E+00 0. -1.
      -12    1    3    3    0    0  0.21433760717E+02 -0.35629994349E-01 -0.12950702173E+02  0.25042524927E+02  0.00000000000E+00 0.  1.
</event>
<event>
 5   1  0.6181100E+00  0.7981137E+02  0.7957747E-01  0.1328073E+00
       -2   -1    0    0    0  501  0.00000000000E+00  0.00000000000E+00  0.12449063503E+02  0.12449063503E+02  0.00000000000E+00 0.  1.
        1   -1    0    0  501    0  0.00000000000E+00  0.00000000000E+00 -0.12791834240E+03  0.12791834240E+03  0.00000000000E+00 0. -1.
      -24    2    1    2    0    0  0.00000000000E+00  0.00000000000E+00 -0.11546927889E+03  0.14036740590E+03  0.79811366801E+02 0.  0.
       11    1    3    3    0    0 -0.38262764435E+02  0.33390850411E+01 -0.76780654749E+02  0.85851369091E+02  0.00000000000E+00 0. -1.
      -12    1    3    3    0    0  0.38262764435E+02 -0.33390850411E+01 -0.38688624144E+02  0.54516036808E+02  0.00000000000E+00 0.  1.
</event>
<event>
 5   1  0.6181100E+00  0.8070606E+02  0.7957747E-01  0.1325678E+00
       -2   -1    0    0    0  501  0.00000000000E+00  0.00000000000E+00  0.41308611644E+02  0.41308611644E+02  0.00000000000E+00 0.  1.
        1   -1    0    0  501    0  0.00000000000E+00  0.00000000000E+00 -0.39419554316E+02  0.39419554316E+02  0.00000000000E+00 0. -1.
      -24    2    1    2    0    0  0.00000000000E+00  0.00000000000E+00  0.18890573282E+01  0.80728165960E+02  0.80706060749E+02 0.  0.
       11    1    3    3    0    0  0.22105522908E+02 -0.33961393611E+01 -0.32653049388E+02  0.39577892060E+02  0.00000000000E+00 0. -1.
      -12    1    3    3    0    0 -0.22105522908E+02  0.33961393611E+01  0.34542106716E+02  0.41150273899E+02  0.00000000000E+00 0.  1.
</event>
<event>
 5   1  0.6181100E+00  0.8283877E+02  0.7957747E-01  0.1320108E+00
       -2   -1    0    0    0  501  0.00000000000E+00  0.00000000000E+00  0.31725569595E+03  0.31725569595E+03  0.00000000000E+00 0.  1.
        1   -1    0    0  501    0  0.00000000000E+00  0.00000000000E+00 -0.54075171085E+01  0.54075171085E+01  0.00000000000E+00 0. -1.
      -24    2    1    2    0    0  0.00000000000E+00  0.00000000000E+00  0.31184817884E+03  0.32266321305E+03  0.82838773617E+02 0.  0.
       11    1    3    3    0    0  0.14494088450E+02 -0.15358552268E+02  0.17136839236E+02  0.27196231114E+02  0.00000000000E+00 0. -1.
      -12    1    3    3    0    0 -0.14494088450E+02  0.15358552268E+02  0.29471133960E+03  0.29546698194E+03  0.00000000000E+00 0.  1.
</event>
<event>
 5   1  0.6181100E+00  0.9827784E+02  0.7957747E-01  0.1284741E+00
       -2   -1    0    0    0  501  0.00000000000E+00  0.00000000000E+00  0.75221522552E+03  0.75221522552E+03  0.00000000000E+00 0.  1.
        1   -1    0    0  501    0  0.00000000000E+00  0.00000000000E+00 -0.32100299886E+01  0.32100299886E+01  0.00000000000E+00 0. -1.
      -24    2    1    2    0    0  0.00000000000E+00  0.00000000000E+00  0.74900519553E+03  0.75542525551E+03  0.98277839451E+02 0.  0.
       11    1    3    3    0    0  0.19990182221E+02 -0.27459834734E+02  0.10154787962E+03  0.10707764362E+03  0.00000000000E+00 0. -1.
      -12    1    3    3    0    0 -0.19990182221E+02  0.27459834734E+02  0.64745731591E+03  0.64834761188E+03  0.00000000000E+00 0.  1.
</event>
<event>
 5   1  0.6181100E+00  0.9136793E+02  0.7957747E-01  0.1299594E+00
        1   -1    0    0  501    0  0.00000000000E+00  0.00000000000E+00  0.16108030483E+02  0.16108030483E+02  0.00000000000E+00 0. -1.
       -2   -1    0    0    0  501  0.00000000000E+00  0.00000000000E+00 -0.12956423083E+03  0.12956423083E+03  0.00000000000E+00 0.  1.
      -24    2    1    2    0    0  0.00000000000E+00  0.00000000000E+00 -0.11345620034E+03  0.14567226131E+03  0.91367928284E+02 0.  0.
       11    1    3    3    0    0  0.33221577794E+02  0.28500198065E+02 -0.35873807118E+02  0.56593856186E+02  0.00000000000E+00 0. -1.
      -12    1    3    3    0    0 -0.33221577794E+02 -0.28500198065E+02 -0.77582393227E+02  0.89078405125E+02  0.00000000000E+00 0.  1.
</event>
<event>
 5   1  0.6181100E+00  0.8066158E+02  0.7957747E-01  0.1325796E+00
        1   -1    0    0  501    0  0.00000000000E+00  0.00000000000E+00  0.55152792236E+02  0.55152792236E+02  0.00000000000E+00 0. -1.
       -2   -1    0    0    0  501  0.00000000000E+00  0.00000000000E+00 -0.29492120121E+02  0.29492120121E+02  0.00000000000E+00 0.  1.
      -24    2    1    2    0    0  0.00000000000E+00  0.00000000000E+00  0.25660672115E+02  0.84644912357E+02  0.80661583760E+02 0.  0.
       11    1    3    3    0    0  0.59616185846E+01  0.20682361174E+02  0.48621408955E+02  0.53172759649E+02  0.00000000000E+00 0. -1.
      -12    1    3    3    0    0 -0.59616185846E+01 -0.20682361174E+02 -0.22960736840E+02  0.31472152709E+02  0.00000000000E+00 0.  1.
</event>
<event>
 5   1  0.6181100E+00  0.8082401E+02  0.7957747E-01  0.1325365E+00
       -4   -1    0    0    0  501  0.00000000000E+00  0.00000000000E+00  0.67713599963E+02  0.67713599963E+02  0.00000000000E+00 0.  1.
        3   -1    0    0  501    0  0.00000000000E+00  0.00000000000E+00 -0.24118199425E+02  0.24118199425E+02  0.00000000000E+00 0. -1.
      -24    2    1    2    0    0  0.00000000000E+00  0.00000000000E+00  0.43595400538E+02  0.91831799388E+02  0.80824009000E+02 0.  0.
       11    1    3    3    0    0 -0.22280301301E+02  0.31869564898E+02  0.92970238161E+01  0.39981441254E+02  0.00000000000E+00 0. -1.
      -12    1    3    3    0    0  0.22280301301E+02 -0.31869564898E+02  0.34298376722E+02  0.51850358134E+02  0.00000000000E+00 0.  1.
</event>
<event>
 4   3  0.6181100E+00  0.1812315E+03  0.7957747E-01  0.1172279E+00
       21   -1    0    0  503  502  0.00000000000E+00  0.00000000000E+00  0.16280259813E+02  0.16280259813E+02  0.00000000000E+00 0.  1.
       21   -1    0    0  501  503  0.00000000000E+00  0.00000000000E+00 -0.24209880098E+04  0.24209880098E+04  0.00000000000E+00 0.  1.
        6    1    1    2  501    0 -0.18108327275E+02 -0.50871746241E+02 -0.16998749078E+04  0.17095085692E+04  0.17300000000E+03 0. -1.
       -6    1    1    2    0  502  0.18108327275E+02  0.50871746241E+02 -0.70483284214E+03  0.72775970034E+03  0.17300000000E+03 0. -1.
</event>
<event>
 5   1  0.6181100E+00  0.8068347E+02  0.7957747E-01  0.1325738E+00
       -2   -1    0    0    0  501  0.00000000000E+00  0.00000000000E+00  0.22283769379E+03  0.22283769379E+03  0.00000000000E+00 0.  1.
        1   -1    0    0  501    0  0.00000000000E+00  0.00000000000E+00 -0.73033220574E+01  0.73033220574E+01  0.00000000000E+00 0. -1.
      -24    2    1    2    0    0  0.00000000000E+00  0.00000000000E+00  0.21553437173E+03  0.23014101584E+03  0.80683466566E+02 0.  0.
       11    1    3    3    0    0  0.33461863810E+02  0.21533270314E+02  0.12670445638E+03  0.13280586330E+03  0.00000000000E+00 0. -1.
      -12    1    3    3    0    0 -0.33461863810E+02 -0.21533270314E+02  0.88829915346E+02  0.97335152542E+02  0.00000000000E+00 0.  1.
</event>
<event>
 5   1  0.6181100E+00  0.8390333E+02  0.7957747E-01  0.1317399E+00
       -2   -1    0    0    0  501  0.00000000000E+00  0.00000000000E+00  0.73315327532E+02  0.73315327532E+02  0.00000000000E+00 0.  1.
        1   -1    0    0  501    0  0.00000000000E+00  0.00000000000E+00 -0.24005106353E+02  0.24005106353E+02  0.00000000000E+00 0. -1.
      -24    2    1    2    0    0  0.00000000000E+00  0.00000000000E+00  0.49310221179E+02  0.97320433885E+02  0.83903330916E+02 0.  0.
       11    1    3    3    0    0  0.29127698321E+01  0.36221356983E+02  0.48970996426E+02  0.60980565927E+02  0.00000000000E+00 0. -1.
      -12    1    3    3    0    0 -0.29127698321E+01 -0.36221356983E+02  0.33922475353E+00  0.36339867958E+02  0.00000000000E+00 0.  1.
</event>
<event>
 5   1  0.6181100E+00  0.8094891E+02  0.7957747E-01  0.1325034E+00
        1   -1    0    0  501    0  0.00000000000E+00  0.00000000000E+00  0.26243228872E+01  0.26243228872E+01  0.00000000000E+00 0. -1.
       -2   -1    0    0    0  501  0.00000000000E+00  0.00000000000E+00 -0.62423012815E+03  0.62423012815E+03  0.00000000000E+00 0.  1.
      -24    2    1    2    0    0  0.00000000000E+00  0.00000000000E+00 -0.62160580527E+03  0.62685445104E+03  0.80948907645E+02 0.  0.
       11    1    3    3    0    0 -0.23636349756E+02  0.18644960289E+02 -0.10130839276E+03  0.10568681100E+03  0.00000000000E+00 0. -1.
      -12    1    3    3    0    0  0.23636349756E+02 -0.18644960289E+02 -0.52029741250E+03  0.52116764004E+03  0.00000000000E+00 0.  1.
</event>
<event>
 5   1  0.6181100E+00  0.8034092E+02  0.7957747E-01  0.1326651E+00
       -2   -1    0    0    0  501  0.00000000000E+00  0.00000000000E+00  0.64454168656E+02  0.64454168656E+02  0.00000000000E+00 0.  1.
        1   -1    0    0  501    0  0.00000000000E+00  0.00000000000E+00 -0.25035867837E+02  0.25035867837E+02  0.00000000000E+00 0. -1.
      -24    2    1    2    0    0  0.00000000000E+00  0.00000000000E+00  0.39418300819E+02  0.89490036492E+02  0.80340924764E+02 0.  0.
       11    1    3    3    0    0 -0.24911304112E+02  0.26692262818E+02  0.10499024322E+01  0.36526049089E+02  0.00000000000E+00 0. -1.
      -12    1    3    3    0    0  0.24911304112E+02 -0.26692262818E+02  0.38368398387E+02  0.52963987404E+02  0.00000000000E+00 0.  1.
</event>
<event>
 5   1  0.6181100E+00  0.8032194E+02  0.7957747E-01  0.1326702E+00
       -2   -1    0    0    0  501  0.00000000000E+00  0.00000000000E+00  0.12565910289E+02  0.12565910289E+02  0.00000000000E+00 0.  1.
        1   -1    0    0  501    0  0.00000000000E+00  0.00000000000E+00 -0.12835547464E+03  0.12835547464E+03  0.00000000000E+00 0. -1.
      -24    2    1    2    0    0  0.00000000000E+00  0.00000000000E+00 -0.11578956435E+03  0.14092138493E+03  0.80321936715E+02 0.  0.
       11    1    3    3    0    0 -0.24433977434E+02 -0.10280289155E+02 -0.11082590349E+03  0.11395211487E+03  0.00000000000E+00 0. -1.
      -12    1    3    3    0    0  0.24433977434E+02  0.10280289155E+02 -0.49636608578E+01  0.26969270058E+02  0.00000000000E+00 0.  1.
</event>
<event>
 5   1  0.6181100E+00  0.7831861E+02  0.7957747E-01  0.1332149E+00
        1   -1    0    0  501    0  0.00000000000E+00  0.00000000000E+00  0.83930349776E+02  0.83930349776E+02  0.00000000000E+00 0. -1.
       -2   -1    0    0    0  501  0.00000000000E+00  0.00000000000E+00 -0.18270520176E+02  0.18270520176E+02  0.00000000000E+00 0.  1.
      -24    2    1    2    0    0  0.00000000000E+00  0.00000000000E+00  0.65659829600E+02  0.10220086995E+03  0.78318609512E+02 0.  0.
       11    1    3    3    0    0  0.19240685779E+02  0.19021831611E+01  0.77267365037E+02  0.79649657813E+02  0.00000000000E+00 0. -1.
      -12    1    3    3    0    0 -0.19240685779E+02 -0.19021831611E+01 -0.11607535437E+02  0.22551212139E+02  0.00000000000E+00 0.  1.
</event>
<event>
 4   3  0.6181100E+00  0.2338143E+03  0.7957747E-01  0.1131063E+00
       21   -1    0    0  503  502  0.00000000000E+00  0.00000000000E+00  0.10538348148E+04  0.10538348148E+04  0.00000000000E+00 0. -1.
       21   -1    0    0  501  503  0.00000000000E+00  0.00000000000E+00 -0.75406629611E+02  0.75406629611E+02  0.00000000000E+00 0. -1.
        6    1    1    2  501    0  0.18058113534E+01  0.15727952099E+03  0.17381128962E+03  0.29134081945E+03  0.17300000000E+03 0. -1.
       -6    1    1    2    0  502 -0.18058113534E+01 -0.15727952099E+03  0.80461689558E+03  0.83790062497E+03  0.17300000000E+03 0. -1.
</event>
<event>
 6   2  0.6181100E+00  0.9995368E+02  0.7957747E-01  0.1281345E+00
        1   -1    0    0  502    0  0.00000000000E+00  0.00000000000E+00  0.19440846054E+02  0.19440846054E+02  0.00000000000E+00 0. -1.
       21   -1    0    0  501  502  0.00000000000E+00  0.00000000000E+00 -0.36695923136E+03  0.36695923136E+03  0.00000000000E+00 0. -1.
      -24    2    1    2    0    0  0.16994705912E+02  0.58739240346E+02 -0.15526367977E+03  0.18465521332E+03  0.79067181353E+02 0.  0.
       11    1    3    3    0    0  0.40557413777E+02  0.53539048748E+02 -0.14208621230E+03  0.15716178059E+03  0.00000000000E+00 0. -1.
      -12    1    3    3    0    0 -0.23562707864E+02  0.52001915975E+01 -0.13177467469E+02  0.27493432733E+02  0.00000000000E+00 0.  1.
        2    1    1    2  501    0 -0.16994705912E+02 -0.58739240346E+02 -0.19225470554E+03  0.20174486409E+03  0.00000000000E+00 0. -1.
</event>
<event>
 5   1  0.6181100E+00  0.8830069E+02  0.7957747E-01  0.1306669E+00
       -4   -1    0    0    0  501  0.00000000000E+00  0.00000000000E+00  0.30096640263E+03  0.30096640263E+03  0.00000000000E+00 0.  1.
        3   -1    0    0  501    0  0.00000000000E+00  0.00000000000E+00 -0.64766457716E+01  0.64766457716E+01  0.00000000000E+00 0. -1.
      -24    2    1    2    0    0  0.00000000000E+00  0.00000000000E+00  0.29448975686E+03  0.30744304840E+03  0.88300685818E+02 0.  0.
       11    1    3    3    0    0  0.13484025504E+01 -0.38390256324E+02  0.71471455609E+02  0.81140612131E+02  0.00000000000E+00 0. -1.
      -12    1    3    3    0    0 -0.13484025504E+01  0.38390256324E+02  0.22301830125E+03  0.22630243627E+03  0.00000000000E+00 0.  1.
</event>
<event>
 5   1  0.6181100E+00  0.7954576E+02  0.7957747E-01  0.1328790E+00
       -4   -1    0    0    0  501  0.00000000000E+00  0.00000000000E+00  0.11777503874E+02  0.11777503874E+02  0.00000000000E+00 0.  1.
        3   -1    0    0  501    0  0.00000000000E+00  0.00000000000E+00 -0.13431385224E+03  0.13431385224E+03  0.00000000000E+00 0. -1.
      -24    2    1    2    0    0  0.00000000000E+00  0.00000000000E+00 -0.12253634837E+03  0.14609135612E+03  0.79545758281E+02 0.  0.
       11    1    3    3    0    0  0.37238557121E+02 -0.13919365479E+02 -0.59077304403E+02  0.71208052685E+02  0.00000000000E+00 0. -1.
      -12    1    3    3    0    0 -0.37238557121E+02  0.13919365479E+02 -0.63459043964E+02  0.74883303430E+02  0.00000000000E+00 0.  1.
</event>
<event>
 5   1  0.6181100E+00  0.8512512E+02  0.7957747E-01  0.1314344E+00
        1   -1    0    0  501    0  0.00000000000E+00  0.00000000000E+00  0.19749781053E+03  0.19749781053E+03  0.00000000000E+00 0. -1.
       -2   -1    0    0    0  501  0.00000000000E+00  0.00000000000E+00 -0.91726147101E+01  0.91726147101E+01  0.00000000000E+00 0.  1.
      -24    2    1    2    0    0  0.00000000000E+00  0.00000000000E+00  0.18832519582E+03  0.20667042524E+03  0.85125115497E+02 0.  0.
       11    1    3    3    0    0  0.42679960788E+01 -0.32772250691E+02  0.15927837832E+03  0.16267095010E+03  0.00000000000E+00 0. -1.
      -12    1    3    3    0    0 -0.42679960788E+01  0.32772250691E+02  0.29046817504E+02  0.43999475145E+02  0.00000000000E+00 0.  1.
</event>
<event>
 5   1  0.6181100E+00  0.7982255E+02  0.7957747E-01  0.1328043E+00
        1   -1    0    0  501    0  0.00000000000E+00  0.00000000000E+00  0.42201311043E+03  0.42201311043E+03  0.00000000000E+00 0. -1.
       -2   -1    0    0    0  501  0.00000000000E+00  0.00000000000E+00 -0.37745507403E+01  0.37745507403E+01  0.00000000000E+00 0.  1.
      -24    2    1    2    0    0  0.00000000000E+00  0.00000000000E+00  0.41823855969E+03  0.42578766117E+03  0.79822550658E+02 0.  0.
       11    1    3    3    0    0 -0.33438312379E+02  0.12813691943E+02  0.11511078020E+03  0.12055207652E+03  0.00000000000E+00 0. -1.
      -12    1    3    3    0    0  0.33438312379E+02 -0.12813691943E+02  0.30312777949E+03  0.30523558465E+03  0.00000000000E+00 0.  1.
</event>
<event>
 5   1  0.6181100E+00  0.8090939E+02  0.7957747E-01  0.1325138E+00
       -2   -1    0    0    0  501  0.00000000000E+00  0.00000000000E+00  0.23692854286E+02  0.23692854286E+02  0.00000000000E+00 0.  1.
        1   -1    0    0  501    0  0.00000000000E+00  0.00000000000E+00 -0.69074926060E+02  0.69074926060E+02  0.00000000000E+00 0. -1.
      -24    2    1    2    0    0  0.00000000000E+00  0.00000000000E+00 -0.45382071774E+02  0.92767780347E+02  0.80909385314E+02 0.  0.
       11    1    3    3    0    0 -0.30434979434E+02 -0.12140314802E+02 -0.49894021113E+02  0.59691612137E+02  0.00000000000E+00 0. -1.
      -12    1    3    3    0    0  0.30434979434E+02  0.12140314802E+02  0.45119493390E+01  0.33076168210E+02  0.00000000000E+00 0.  1.
</event>
<event>
 5   1  0.6181100E+00  0.8118083E+02  0.7957747E-01  0.1324421E+00
        3   -1    0    0  501    0  0.00000000000E+00  0.00000000000E+00  0.37472570373E+03  0.37472570373E+03  0.00000000000E+00 0. -1.
       -4   -1    0    0    0  501  0.00000000000E+00  0.00000000000E+00 -0.43967671467E+01  0.43967671467E+01  0.00000000000E+00 0.  1.
      -24    2    1    2    0    0  0.00000000000E+00  0.00000000000E+00  0.37032893658E+03  0.37912247088E+03  0.81180826879E+02 0.  0.
       11    1    3    3    0    0 -0.33107649444E+02 -0.22046255945E+02  0.22293970969E+03  0.22646030118E+03  0.00000000000E+00 0. -1.
      -12    1    3    3    0    0  0.33107649444E+02  0.22046255945E+02  0.14738922689E+03  0.15266216970E+03  0.00000000000E+00 0.  1.
</event>
<event>
 5   1  0.6181100E+00  0.8008322E+02  0.7957747E-01  0.1327341E+00
       -4   -1    0    0    0  501  0.00000000000E+00  0.00000000000E+00  0.13469331544E+02  0.13469331544E+02  0.00000000000E+00 0.  1.
        3   -1    0    0  501    0  0.00000000000E+00  0.00000000000E+00 -0.11903564772E+03  0.11903564772E+03  0.00000000000E+00 0. -1.
      -24    2    1    2    0    0  0.00000000000E+00  0.00000000000E+00 -0.10556631618E+03  0.13250497927E+03  0.80083221831E+02 0.  0.
       11    1    3    3    0    0 -0.19957869239E+02  0.14637554823E+02 -0.10486352411E+03  0.10774475971E+03  0.00000000000E+00 0. -1.
      -12    1    3    3    0    0  0.19957869239E+02 -0.14637554823E+02 -0.70279206608E+00  0.24760219556E+02  0.00000000000E+00 0.  1.
</event>
<event>
 5   1  0.6181100E+00  0.8227063E+02  0.7957747E-01  0.1321573E+00
        3   -1    0    0  501    0  0.00000000000E+00  0.00000000000E+00  0.18748178278E+02  0.18748178278E+02  0.00000000000E+00 0. -1.
       -4   -1    0    0    0  501  0.00000000000E+00  0.00000000000E+00 -0.90254858966E+02  0.90254858966E+02  0.00000000000E+00 0.  1.
      -24    2    1    2    0    0  0.00000000000E+00  0.00000000000E+00 -0.71506680687E+02  0.10900303724E+03  0.82270631123E+02 0.  0.
       11    1    3    3    0    0  0.16225498614E+02 -0.16969284819E+02  0.89990050145E+01  0.25143697496E+02  0.00000000000E+00 0. -1.
      -12    1    3    3    0    0 -0.16225498614E+02  0.16969284819E+02 -0.80505685702E+02  0.83859339747E+02  0.00000000000E+00 0.  1.
</event>
<event>
 4   3  0.6181100E+00  0.2342904E+03  0.7957747E-01  0.1130745E+00
       21   -1    0    0  501  502  0.00000000000E+00  0.00000000000E+00  0.28772228673E+02  0.28772228673E+02  0.00000000000E+00 0.  1.
       21   -1    0    0  502  503  0.00000000000E+00  0.00000000000E+00 -0.19082315941E+04  0.19082315941E+04  0.00000000000E+00 0. -1.
        6    1    1    2  501    0  0.57803402821E+02 -0.14704346672E+03 -0.92537494358E+03  0.95457362245E+03  0.17300000000E+03 0. -1.
       -6    1    1    2    0  503 -0.57803402821E+02  0.14704346672E+03 -0.95408442181E+03  0.98243020028E+03  0.17300000000E+03 0.  1.
</event>
<event>
 6   2  0.6181100E+00  0.8709527E+02  0.7957747E-01  0.1309539E+00
       -2   -1    0    0    0  501  0.00000000000E+00  0.00000000000E+00  0.99973307025E+02  0.99973307025E+02  0.00000000000E+00 0.  1.
       21   -1    0    0  501  502  0.00000000000E+00  0.00000000000E+00 -0.99466581087E+02  0.99466581087E+02  0.00000000000E+00 0.  1.
      -24    2    1    2    0    0  0.15717231971E+02 -0.30224339252E+02  0.76651586531E+02  0.11602177342E+03  0.80156372956E+02 0.  0.
       11    1    3    3    0    0  0.19293036905E+02 -0.19649211531E+02 -0.95150510259E+01  0.29135013005E+02  0.00000000000E+00 0. -1.
      -12    1    3    3    0    0 -0.35758049339E+01 -0.10575127721E+02  0.86166637557E+02  0.86886760413E+02  0.00000000000E+00 0.  1.
       -1    1    1    2    0  502 -0.15717231971E+02  0.30224339252E+02 -0.76144860593E+02  0.83418114692E+02  0.00000000000E+00 0.  1.
</event>
<event>
 5   1  0.6181100E+00  0.7979927E+02  0.7957747E-01  0.1328105E+00
        1   -1    0    0  501    0  0.00000000000E+00  0.00000000000E+00  0.25013462303E+02  0.25013462303E+02  0.00000000000E+00 0. -1.
       -2   -1    0    0    0  501  0.00000000000E+00  0.00000000000E+00 -0.63644960198E+02  0.63644960198E+02  0.00000000000E+00 0.  1.
      -24    2    1    2    0    0  0.00000000000E+00  0.00000000000E+00 -0.38631497895E+02  0.88658422501E+02  0.79799268485E+02 0.  0.
       11    1    3    3    0    0 -0.31962291820E+02 -0.21152073408E+02 -0.31636658134E+02  0.49697851520E+02  0.00000000000E+00 0. -1.
      -12    1    3    3    0    0  0.31962291820E+02  0.21152073408E+02 -0.69948397607E+01  0.38960570980E+02  0.00000000000E+00 0.  1.
</event>
<event>
 4   3  0.6181100E+00  0.2010881E+03  0.7957747E-01  0.1155100E+00
       -2   -1    0    0    0  501  0.00000000000E+00  0.00000000000E+00  0.69531160771E+02  0.69531160771E+02  0.00000000000E+00 0. -1.
        2   -1    0    0  502    0  0.00000000000E+00  0.00000000000E+00 -0.58164161078E+03  0.58164161078E+03  0.00000000000E+00 0.  1.
        6    1    1    2  502    0 -0.10175581681E+03  0.12376417101E+02 -0.25995242606E+03  0.32865131336E+03  0.17300000000E+03 0. -1.
       -6    1    1    2    0  501  0.10175581681E+03 -0.12376417101E+02 -0.25215802394E+03  0.32252145819E+03  0.17300000000E+03 0.  1.
</event>
<event>
 5   1  0.6181100E+00  0.6581755E+02  0.7957747E-01  0.1370899E+00
       -2   -1    0    0    0  501  0.00000000000E+00  0.00000000000E+00  0.14690673639E+03  0.14690673639E+03  0.00000000000E+00 0.  1.
        1   -1    0    0  501    0  0.00000000000E+00  0.00000000000E+00 -0.73719394543E+01  0.73719394543E+01  0.00000000000E+00 0. -1.
      -24    2    1    2    0    0  0.00000000000E+00  0.00000000000E+00  0.13953479694E+03  0.15427867585E+03  0.65817552860E+02 0.  0.
       11    1    3    3    0    0 -0.15958474616E+02 -0.75814933124E+01  0.46877711291E+01  0.18279145250E+02  0.00000000000E+00 0. -1.
      -12    1    3    3    0    0  0.15958474616E+02  0.75814933124E+01  0.13484702581E+03  0.13599953060E+03  0.00000000000E+00 0.  1.
</event>
<event>
 4   3  0.6181100E+00  0.1842032E+03  0.7957747E-01  0.1169558E+00
       21   -1    0    0  503  502  0.00000000000E+00  0.00000000000E+00  0.55081523234E+02  0.55081523234E+02  0.00000000000E+00 0. -1.
       21   -1    0    0  501  503  0.00000000000E+00  0.00000000000E+00 -0.64430741263E+03  0.64430741263E+03  0.00000000000E+00 0.  1.
        6    1    1    2  501    0  0.62995077015E+02  0.57839271923E+01 -0.36789650963E+03  0.41143489806E+03  0.17300000000E+03 0.  1.
       -6    1    1    2    0  502 -0.62995077015E+02 -0.57839271923E+01 -0.22132937977E+03  0.28795403781E+03  0.17300000000E+03 0.  1.
</event>
<event>
 5   1  0.6181100E+00  0.7884718E+02  0.7957747E-01  0.1330694E+00
        1   -1    0    0  501    0  0.00000000000E+00  0.00000000000E+00  0.83287083520E+02  0.83287083520E+02  0.00000000000E+00 0. -1.
       -2   -1    0    0    0  501  0.00000000000E+00  0.00000000000E+00 -0.18660990966E+02  0.18660990966E+02  0.00000000000E+00 0.  1.
      -24    2    1    2    0    0  0.00000000000E+00  0.00000000000E+00  0.64626092554E+02  0.10194807449E+03  0.78847181640E+02 0.  0.
       11    1    3    3    0    0 -0.31164425758E+02  0.21765474743E+02  0.45828412024E+02  0.59541587754E+02  0.00000000000E+00 0. -1.
      -12    1    3    3    0    0  0.31164425758E+02 -0.21765474743E+02  0.18797680530E+02  0.42406486731E+02  0.00000000000E+00 0.  1.
</event>
<event>
 5   1  0.6181100E+00  0.8130769E+02  0.7957747E-01  0.1324087E+00
        1   -1    0    0  501    0  0.00000000000E+00  0.00000000000E+00  0.27072088392E+01  0.27072088392E+01  0.00000000000E+00 0. -1.
       -2   -1    0    0    0  501  0.00000000000E+00  0.00000000000E+00 -0.61049410329E+03  0.61049410329E+03  0.00000000000E+00 0.  1.
      -24    2    1    2    0    0  0.00000000000E+00  0.00000000000E+00 -0.60778689445E+03  0.61320131213E+03  0.81307688018E+02 0.  0.
       11    1    3    3    0    0 -0.10873407908E+02 -0.12611322095E+02 -0.24191671815E+02  0.29368578953E+02  0.00000000000E+00 0. -1.
      -12    1    3    3    0    0  0.10873407908E+02  0.12611322095E+02 -0.58359522264E+03  0.58383273318E+03  0.00000000000E+00 0.  1.
</event>
<event>
 4   3  0.6181100E+00  0.2600244E+03  0.7957747E-01  0.1114717E+00
       21   -1    0    0  503  502  0.00000000000E+00  0.00000000000E+00  0.95350712670E+03  0.95350712670E+03  0.00000000000E+00 0.  1.
       21   -1    0    0  501  503  0.00000000000E+00  0.00000000000E+00 -0.78288847252E+02  0.78288847252E+02  0.00000000000E+00 0.  1.
        6    1    1    2  501    0 -0.19346489003E+03 -0.15969657163E+02  0.59599757714E+03  0.65025057138E+03  0.17300000000E+03 0.  1.
       -6    1    1    2    0  502  0.19346489003E+03  0.15969657163E+02  0.27922070231E+03  0.38154540257E+03  0.17300000000E+03 0.  1.
</event>
<event>
 5   1  0.6181100E+00  0.7575110E+02  0.7957747E-01  0.1339406E+00
        3   -1    0    0  501    0  0.00000000000E+00  0.00000000000E+00  0.36195298079E+02  0.36195298079E+02  0.00000000000E+00 0. -1.
       -4   -1    0    0    0  501  0.00000000000E+00  0.00000000000E+00 -0.39633798896E+02  0.39633798896E+02  0.00000000000E+00 0.  1.
      -24    2    1    2    0    0  0.00000000000E+00  0.00000000000E+00 -0.34385008171E+01  0.75829096975E+02  0.75751096759E+02 0.  0.
       11    1    3    3    0    0 -0.24225964007E+02 -0.16610532209E+02 -0.25655167157E+02  0.38999932233E+02  0.00000000000E+00 0. -1.
      -12    1    3    3    0    0  0.24225964007E+02  0.16610532209E+02  0.22216666340E+02  0.36829164742E+02  0.00000000000E+00 0.  1.
</event>
<event>
 6   2  0.6181100E+00  0.8202805E+02  0.7957747E-01  0.1322203E+00
       -2   -1    0    0    0  501  0.00000000000E+00  0.00000000000E+00  0.24803229463E+03  0.24803229463E+03  0.00000000000E+00 0.  1.
       21   -1    0    0  501  502  0.00000000000E+00  0.00000000000E+00 -0.25377836617E+02  0.25377836617E+02  0.00000000000E+00 0.  1.
      -24    2    1    2    0    0 -0.18057080402E+02  0.10291325388E+02  0.23522720067E+03  0.24911932252E+03  0.79351316201E+02 0.  0.
       11    1    3    3    0    0 -0.75138600802E+01 -0.30130905145E+02  0.16078914769E+03  0.16376043342E+03  0.00000000000E+00 0. -1.
      -12    1    3    3    0    0 -0.10543220322E+02  0.40422230533E+02  0.74438052981E+02  0.85358889095E+02  0.00000000000E+00 0.  1.
       -1    1    1    2    0  502  0.18057080402E+02 -0.10291325388E+02 -0.12572742659E+02  0.24290808732E+02  0.00000000000E+00 0.  1.
</event>
<event>
 5   1  0.6181100E+00  0.8128307E+02  0.7957747E-01  0.1324152E+00
        1   -1    0    0  501    0  0.00000000000E+00  0.00000000000E+00  0.18951512781E+03  0.18951512781E+03  0.00000000000E+00 0. -1.
       -2   -1    0    0    0  501  0.00000000000E+00  0.00000000000E+00 -0.87155796234E+01  0.87155796234E+01  0.00000000000E+00 0.  1.
      -24    2    1    2    0    0  0.00000000000E+00  0.00000000000E+00  0.18079954819E+03  0.19823070744E+03  0.81283065550E+02 0.  0.
       11    1    3    3    0    0 -0.29352575588E+02 -0.47765634953E+01  0.15795612323E+03  0.16073122322E+03  0.00000000000E+00 0. -1.
      -12    1    3    3    0    0  0.29352575588E+02  0.47765634953E+01  0.22843424958E+02  0.37499484213E+02  0.00000000000E+00 0.  1.
</event>
<event>
 4   3  0.6181100E+00  0.1762136E+03  0.7957747E-01  0.1177006E+00
       21   -1    0    0  501  502  0.00000000000E+00  0.00000000000E+00  0.56055899709E+03  0.56055899709E+03  0.00000000000E+00 0. -1.
       21   -1    0    0  502  503  0.00000000000E+00  0.00000000000E+00 -0.22540844859E+03  0.22540844859E+03  0.00000000000E+00 0. -1.
        6    1    1    2  501    0 -0.88639828220E+00 -0.33488147239E+02  0.50887285602E+03  0.53851910393E+03  0.17300000000E+03 0. -1.
       -6    1    1    2    0  503  0.88639828220E+00  0.33488147239E+02 -0.17372230751E+03  0.24744834175E+03  0.17300000000E+03 0. -1.
</event>
<event>
 6   2  0.6181100E+00  0.8468255E+02  0.7957747E-01  0.1315444E+00
        1   -1    0    0  502    0  0.00000000000E+00  0.00000000000E+00  0.21962979271E+03  0.21962979271E+03  0.00000000000E+00 0. -1.
       -2   -1    0    0    0  501  0.00000000000E+00  0.00000000000E+00 -0.13129818201E+02  0.13129818201E+02  0.00000000000E+00 0.  1.
      -24    2    1    2    0    0 -0.24700955303E+01 -0.20369356651E+02  0.14488249806E+03  0.16781559297E+03  0.82159131798E+02 0.  0.
       11    1    3    3    0    0  0.21257938278E+02  0.23101693124E+02  0.33458414140E+02  0.45880863569E+02  0.00000000000E+00 0. -1.
      -12    1    3    3    0    0 -0.23728033809E+02 -0.43471049775E+02  0.11142408392E+03  0.12193472940E+03  0.00000000000E+00 0.  1.
       21    1    1    2  502  501  0.24700955303E+01  0.20369356651E+02  0.61617476452E+02  0.64944017943E+02  0.00000000000E+00 0. -1.
</event>
<event>
 5   1  0.6181100E+00  0.8015439E+02  0.7957747E-01  0.1327150E+00
        1   -1    0    0  501    0  0.00000000000E+00  0.00000000000E+00  0.59091609040E+02  0.59091609040E+02  0.00000000000E+00 0. -1.
       -2   -1    0    0    0  501  0.00000000000E+00  0.00000000000E+00 -0.27181211008E+02  0.27181211008E+02  0.00000000000E+00 0.  1.
      -24    2    1    2    0    0  0.00000000000E+00  0.00000000000E+00  0.31910398033E+02  0.86272820048E+02  0.80154388379E+02 0.  0.
       11    1    3    3    0    0  0.28698607403E+02  0.42778680961E+01  0.45710918602E+02  0.54142389140E+02  0.00000000000E+00 0. -1.
      -12    1    3    3    0    0 -0.28698607403E+02 -0.42778680961E+01 -0.13800520570E+02  0.32130430908E+02  0.00000000000E+00 0.  1.
</event>
<event>
 5   1  0.6181100E+00  0.8671966E+02  0.7957747E-01  0.1310444E+00
        1   -1    0    0  501    0  0.00000000000E+00  0.00000000000E+00  0.65908830194E+01  0.65908830194E+01  0.00000000000E+00 0. -1.
       -2   -1    0    0    0  501  0.00000000000E+00  0.00000000000E+00 -0.28525389765E+03  0.28525389765E+03  0.00000000000E+00 0.  1.
      -24    2    1    2    0    0  0.00000000000E+00  0.00000000000E+00 -0.27866301463E+03  0.29184478067E+03  0.86719664903E+02 0.  0.
       11    1    3    3    0    0 -0.32842318882E+02  0.11253220662E+02 -0.51907840975E+02  0.62447392576E+02  0.00000000000E+00 0. -1.
      -12    1    3    3    0    0  0.32842318882E+02 -0.11253220662E+02 -0.22675517365E+03  0.22939738809E+03  0.00000000000E+00 0.  1.
</event>
<event>
 5   1  0.6181100E+00  0.8076743E+02  0.7957747E-01  0.1325515E+00
       -4   -1    0    0    0  501  0.00000000000E+00  0.00000000000E+00  0.51432396890E+03  0.51432396890E+03  0.00000000000E+00 0.  1.
        3   -1    0    0  501    0  0.00000000000E+00  0.00000000000E+00 -0.31708506925E+01  0.31708506925E+01  0.00000000000E+00 0. -1.
      -24    2    1    2    0    0  0.00000000000E+00  0.00000000000E+00  0.51115311821E+03  0.51749481959E+03  0.80767431876E+02 0.  0.
       11    1    3    3    0    0  0.13154674242E+02  0.45226234313E+01  0.12663851877E+02  0.18811505029E+02  0.00000000000E+00 0. -1.
      -12    1    3    3    0    0 -0.13154674242E+02 -0.45226234313E+01  0.49848926633E+03  0.49868331456E+03  0.00000000000E+00 0.  1.
</event>
<event>
 6   2  0.6181100E+00  0.8453459E+02  0.7957747E-01  0.1315813E+00
        1   -1    0    0  502    0  0.00000000000E+00  0.00000000000E+00  0.13670600772E+03  0.13670600772E+03  0.00000000000E+00 0. -1.
       21   -1    0    0  501  502  0.00000000000E+00  0.00000000000E+00 -0.21397754247E+02  0.21397754247E+02  0.00000000000E+00 0. -1.
      -24    2    1    2    0    0 -0.22465677601E+02 -0.48519676953E+01  0.97389443363E+02  0.12896046057E+03  0.81350159504E+02 0.  0.
       11    1    3    3    0    0 -0.23715215270E+02 -0.33710053942E+02  0.18935168465E+02  0.45357687075E+02  0.00000000000E+00 0. -1.
      -12    1    3    3    0    0  0.12495376688E+01  0.28858086246E+02  0.78454274898E+02  0.83602773495E+02  0.00000000000E+00 0.  1.
        2    1    1    2  501    0  0.22465677601E+02  0.48519676953E+01  0.17918810112E+02  0.29143301398E+02  0.00000000000E+00 0. -1.
</event>
<event>
 5   1  0.6181100E+00  0.7953793E+02  0.7957747E-01  0.1328812E+00
       -2   -1    0    0    0  501  0.00000000000E+00  0.00000000000E+00  0.18779995954E+02  0.18779995954E+02  0.00000000000E+00 0.  1.
        1   -1    0    0  501    0  0.00000000000E+00  0.00000000000E+00 -0.84215700519E+02  0.84215700519E+02  0.00000000000E+00 0. -1.
      -24    2    1    2    0    0  0.00000000000E+00  0.00000000000E+00 -0.65435704565E+02  0.10299569647E+03  0.79537928437E+02 0.  0.
       11    1    3    3    0    0 -0.25523035686E+02  0.30384104557E+02 -0.36131978135E+02  0.53666926541E+02  0.00000000000E+00 0. -1.
      -12    1    3    3    0    0  0.25523035686E+02 -0.30384104557E+02 -0.29303726430E+02  0.49328769933E+02  0.00000000000E+00 0.  1.
</event>
<event>
 6   2  0.6181100E+00  0.9247769E+02  0.7957747E-01  0.1297110E+00
        1   -1    0    0  502    0  0.00000000000E+00  0.00000000000E+00  0.30995166813E+03  0.30995166813E+03  0.00000000000E+00 0. -1.
       21   -1    0    0  501  502  0.00000000000E+00  0.00000000000E+00 -0.15865680513E+02  0.15865680513E+02  0.00000000000E+00 0.  1.
      -24    2    1    2    0    0  0.37368237553E+02  0.25987360890E+02  0.16805698576E+03  0.19182094043E+03  0.80500898272E+02 0.  0.
       11    1    3    3    0    0  0.12761628134E+02  0.39989559458E+02  0.15510974682E+03  0.16068932005E+03  0.00000000000E+00 0. -1.
      -12    1    3    3    0    0  0.24606609419E+02 -0.14002198568E+02  0.12947238940E+02  0.31131620389E+02  0.00000000000E+00 0.  1.
        2    1    1    2  501    0 -0.37368237553E+02 -0.25987360890E+02  0.12602900185E+03  0.13399640821E+03  0.00000000000E+00 0. -1.
</event>
<event>
 5   1  0.6181100E+00  0.8100047E+02  0.7957747E-01  0.1324897E+00
        1   -1    0    0  501    0  0.00000000000E+00  0.00000000000E+00  0.47718643342E+02  0.47718643342E+02  0.00000000000E+00 0. -1.
       -2   -1    0    0    0  501  0.00000000000E+00  0.00000000000E+00 -0.34373758125E+02  0.34373758125E+02  0.00000000000E+00 0.  1.
      -24    2    1    2    0    0  0.00000000000E+00  0.00000000000E+00  0.13344885218E+02  0.82092401467E+02  0.81000471710E+02 0.  0.
       11    1    3    3    0    0 -0.21759479827E+02 -0.91727490406E+01  0.40019722802E+02  0.46467112031E+02  0.00000000000E+00 0. -1.
      -12    1    3    3    0    0  0.21759479827E+02  0.91727490406E+01 -0.26674837585E+02  0.35625289437E+02  0.00000000000E+00 0.  1.
</event>
<event>
 5   1  0.6181100E+00  0.7983176E+02  0.7957747E-01  0.1328018E+00
       -2   -1    0    0    0  501  0.00000000000E+00  0.00000000000E+00  0.20347953385E+02  0.20347953385E+02  0.00000000000E+00 0.  1.
        1   -1    0    0  501    0  0.00000000000E+00  0.00000000000E+00 -0.78301617312E+02  0.78301617312E+02  0.00000000000E+00 0. -1.
      -24    2    1    2    0    0  0.00000000000E+00  0.00000000000E+00 -0.57953663926E+02  0.98649570697E+02  0.79831764582E+02 0.  0.
       11    1    3    3    0    0 -0.81683937172E+01  0.11801289183E+02  0.17049063816E+02  0.22285952062E+02  0.00000000000E+00 0. -1.
      -12    1    3    3    0    0  0.81683937172E+01 -0.11801289183E+02 -0.75002727742E+02  0.76363618635E+02  0.00000000000E+00 0.  1.
</event>
<event>
 5   1  0.6181100E+00  0.8062425E+02  0.7957747E-01  0.1325895E+00
       -2   -1    0    0    0  501  0.00000000000E+00  0.00000000000E+00  0.41064251140E+02  0.41064251140E+02  0.00000000000E+00 0.  1.
        1   -1    0    0  501    0  0.00000000000E+00  0.00000000000E+00 -0.39573773943E+02  0.39573773943E+02  0.00000000000E+00 0. -1.
      -24    2    1    2    0    0  0.00000000000E+00  0.00000000000E+00  0.14904771969E+01  0.80638025084E+02  0.80624249250E+02 0.  0.
       11    1    3    3    0    0 -0.22766599071E+02 -0.12519860714E+02 -0.30082137508E+02  0.39749213107E+02  0.00000000000E+00 0. -1.
      -12    1    3    3    0    0  0.22766599071E+02  0.12519860714E+02  0.31572614705E+02  0.40888811977E+02  0.00000000000E+00 0.  1.
</event>
<event>
 5   1  0.6181100E+00  0.8101365E+02  0.7957747E-01  0.1324863E+00
        1   -1    0    0  501    0  0.00000000000E+00  0.00000000000E+00  0.39123609415E+02  0.39123609415E+02  0.00000000000E+00 0. -1.
       -2   -1    0    0    0  501  0.00000000000E+00  0.00000000000E+00 -0.41938946649E+02  0.41938946649E+02  0.00000000000E+00 0.  1.
      -24    2    1    2    0    0  0.00000000000E+00  0.00000000000E+00 -0.28153372346E+01  0.81062556064E+02  0.81013652380E+02 0.  0.
       11    1    3    3    0    0 -0.14280488792E+02 -0.15305013204E+02  0.33292180698E+02  0.39326137428E+02  0.00000000000E+00 0. -1.
      -12    1    3    3    0    0  0.14280488792E+02  0.15305013204E+02 -0.36107517933E+02  0.41736418636E+02  0.00000000000E+00 0.  1.
</event>
<event>
 5   1  0.6181100E+00  0.8049809E+02  0.7957747E-01  0.1326231E+00
        1   -1    0    0  501    0  0.00000000000E+00  0.00000000000E+00  0.12495973031E+02  0.12495973031E+02  0.00000000000E+00 0. -1.
       -2   -1    0    0    0  501  0.00000000000E+00  0.00000000000E+00 -0.12964061328E+03  0.12964061328E+03  0.00000000000E+00 0.  1.
      -24    2    1    2    0    0  0.00000000000E+00  0.00000000000E+00 -0.11714464025E+03  0.14213658631E+03  0.80498089597E+02 0.  0.
       11    1    3    3    0    0 -0.13445251175E+02  0.18863130448E+02 -0.45396058534E+00  0.23168913433E+02  0.00000000000E+00 0. -1.
      -12    1    3    3    0    0  0.13445251175E+02 -0.18863130448E+02 -0.11669067966E+03  0.11896767288E+03  0.00000000000E+00 0.  1.
</event>
<event>
 5   1  0.6181100E+00  0.7931682E+02  0.7957747E-01  0.1329412E+00
       -2   -1    0    0    0  501  0.00000000000E+00  0.00000000000E+00  0.42276738955E+02  0.42276738955E+02  0.00000000000E+00 0.  1.
        1   -1    0    0  501    0  0.00000000000E+00  0.00000000000E+00 -0.37202238646E+02  0.37202238646E+02  0.00000000000E+00 0. -1.
      -24    2    1    2    0    0  0.00000000000E+00  0.00000000000E+00  0.50745003089E+01  0.79478977601E+02  0.79316816169E+02 0.  0.
       11    1    3    3    0    0 -0.13172016843E+01  0.18093010541E+02 -0.32800943084E+02  0.37483248498E+02  0.00000000000E+00 0. -1.
      -12    1    3    3    0    0  0.13172016843E+01 -0.18093010541E+02  0.37875443393E+02  0.41995729104E+02  0.00000000000E+00 0.  1.
</event>
<event>
 4   3  0.6181100E+00  0.1796212E+03  0.7957747E-01  0.1173777E+00
       21   -1    0    0  501  502  0.00000000000E+00  0.00000000000E+00  0.86156400427E+03  0.86156400427E+03  0.00000000000E+00 0.  1.
       21   -1    0    0  502  503  0.00000000000E+00  0.00000000000E+00 -0.37521635682E+02  0.37521635682E+02  0.00000000000E+00 0.  1.
        6    1    1    2  501    0  0.39283942070E+02 -0.28134632860E+02  0.43194582143E+03  0.46780442315E+03  0.17300000000E+03 0.  1.
       -6    1    1    2    0  503 -0.39283942070E+02  0.28134632860E+02  0.39209654716E+03  0.43128121680E+03  0.17300000000E+03 0.  1.
</event>
<event>
 5   1  0.6181100E+00  0.8153845E+02  0.7957747E-01  0.1323481E+00
        1   -1    0    0  501    0  0.00000000000E+00  0.00000000000E+00  0.16099189417E+02  0.16099189417E+02  0.00000000000E+00 0. -1.
       -2   -1    0    0    0  501  0.00000000000E+00  0.00000000000E+00 -0.10324305837E+03  0.10324305837E+03  0.00000000000E+00 0.  1.
      -24    2    1    2    0    0  0.00000000000E+00  0.00000000000E+00 -0.87143868953E+02  0.11934224779E+03  0.81538446212E+02 0.  0.
       11    1    3    3    0    0  0.92165962147E+01 -0.32522861772E+02 -0.10213738363E+02  0.35312924475E+02  0.00000000000E+00 0. -1.
      -12    1    3    3    0    0 -0.92165962147E+01  0.32522861772E+02 -0.76930130590E+02  0.84029323311E+02  0.00000000000E+00 0.  1.
</event>
<event>
 4   1  0.6181100E+00  0.1365517E+03  0.7957747E-01  0.1221748E+00
       -2   -1    0    0    0  501  0.00000000000E+00  0.00000000000E+00  0.63889197278E+02  0.63889197278E+02  0.00000000000E+00 0.  1.
        1   -1    0    0  501    0  0.00000000000E+00  0.00000000000E+00 -0.72963709974E+02  0.72963709974E+02  0.00000000000E+00 0. -1.
       11    1    1    2    0    0 -0.22234879744E+02  0.48945383298E+02 -0.46719907181E+02  0.71223522451E+02  0.00000000000E+00 0. -1.
      -12    1    1    2    0    0  0.22234879744E+02 -0.48945383298E+02  0.37645394485E+02  0.65629384801E+02  0.00000000000E+00 0.  1.
</event>
<event>
 6   2  0.6181100E+00  0.8298753E+02  0.7957747E-01  0.1319727E+00
       21   -1    0    0  501  502  0.00000000000E+00  0.00000000000E+00  0.37008346910E+02  0.37008346910E+02  0.00000000000E+00 0. -1.
       -2   -1    0    0    0  501  0.00000000000E+00  0.00000000000E+00 -0.10537466208E+03  0.10537466208E+03  0.00000000000E+00 0.  1.
      -24    2    1    2    0    0 -0.50687067076E+01 -0.40779263458E+02 -0.53224899557E+02  0.98589144318E+02  0.72099163162E+02 0.  0.
       11    1    3    3    0    0  0.30693355431E+01 -0.34572807344E+02  0.87338501974E+01  0.35790780483E+02  0.00000000000E+00 0. -1.
      -12    1    3    3    0    0 -0.81380422508E+01 -0.62064561143E+01 -0.61958749755E+02  0.62798363835E+02  0.00000000000E+00 0.  1.
       -1    1    1    2    0  502  0.50687067076E+01  0.40779263458E+02 -0.15141415609E+02  0.43793864668E+02  0.00000000000E+00 0.  1.
</event>
<event>
 5   1  0.6181100E+00  0.7428987E+02  0.7957747E-01  0.1343683E+00
        1   -1    0    0  501    0  0.00000000000E+00  0.00000000000E+00  0.84230460244E+02  0.84230460244E+02  0.00000000000E+00 0. -1.
       -2   -1    0    0    0  501  0.00000000000E+00  0.00000000000E+00 -0.16380608855E+02  0.16380608855E+02  0.00000000000E+00 0.  1.
      -24    2    1    2    0    0  0.00000000000E+00  0.00000000000E+00  0.67849851389E+02  0.10061106910E+03  0.74289870721E+02 0.  0.
       11    1    3    3    0    0 -0.16656651585E+02 -0.22773228550E+02  0.66644255671E+02  0.72370717798E+02  0.00000000000E+00 0. -1.
      -12    1    3    3    0    0  0.16656651585E+02  0.22773228550E+02  0.12055957181E+01  0.28240351302E+02  0.00000000000E+00 0.  1.
</event>
<event>
 5   1  0.6181100E+00  0.8098276E+02  0.7957747E-01  0.1324944E+00
       -2   -1    0    0    0  501  0.00000000000E+00  0.00000000000E+00  0.35032992019E+02  0.35032992019E+02  0.00000000000E+00 0.  1.
        1   -1    0    0  501    0  0.00000000000E+00  0.00000000000E+00 -0.46800227839E+02  0.46800227839E+02  0.00000000000E+00 0. -1.
      -24    2    1    2    0    0  0.00000000000E+00  0.00000000000E+00 -0.11767235820E+02  0.81833219859E+02  0.80982763806E+02 0.  0.
       11    1    3    3    0    0  0.81720518981E+01 -0.25757604253E+02 -0.36355151911E+02  0.45298274576E+02  0.00000000000E+00 0. -1.
      -12    1    3    3    0    0 -0.81720518981E+01  0.25757604253E+02  0.24587916091E+02  0.36534945282E+02  0.00000000000E+00 0.  1.
</event>
<event>
 5   1  0.6181100E+00  0.8044331E+02  0.7957747E-01  0.1326377E+00
        1   -1    0    0  501    0  0.00000000000E+00  0.00000000000E+00  0.45318654417E+02  0.45318654417E+02  0.00000000000E+00 0. -1.
       -2   -1    0    0    0  501  0.00000000000E+00  0.00000000000E+00 -0.35697916041E+02  0.35697916041E+02  0.00000000000E+00 0.  1.
      -24    2    1    2    0    0  0.00000000000E+00  0.00000000000E+00  0.96207383757E+01  0.81016570458E+02  0.80443309739E+02 0.  0.
       11    1    3    3    0    0  0.84013290403E+00 -0.10852315824E+02  0.43807137678E+02  0.45139161419E+02  0.00000000000E+00 0. -1.
      -12    1    3    3    0    0 -0.84013290403E+00  0.10852315824E+02 -0.34186399303E+02  0.35877409039E+02  0.00000000000E+00 0.  1.
</event>
<event>
 5   1  0.6181100E+00  0.7420462E+02  0.7957747E-01  0.1343936E+00
       -2   -1    0    0    0  501  0.00000000000E+00  0.00000000000E+00  0.24000429878E+03  0.24000429878E+03  0.00000000000E+00 0.  1.
        1   -1    0    0  501    0  0.00000000000E+00  0.00000000000E+00 -0.57356534453E+01  0.57356534453E+01  0.00000000000E+00 0. -1.
      -24    2    1    2    0    0  0.00000000000E+00  0.00000000000E+00  0.23426864533E+03  0.24573995222E+03  0.74204622044E+02 0.  0.
       11    1    3    3    0    0  0.15116559387E+02  0.59739415844E+01  0.66827229000E+01  0.17574331598E+02  0.00000000000E+00 0. -1.
      -12    1    3    3    0    0 -0.15116559387E+02 -0.59739415844E+01  0.22758592243E+03  0.22816562062E+03  0.00000000000E+00 0.  1.
</event>
<event>
 5   1  0.6181100E+00  0.8038648E+02  0.7957747E-01  0.1326529E+00
        1   -1    0    0  501    0  0.00000000000E+00  0.00000000000E+00  0.83559440717E+01  0.83559440717E+01  0.00000000000E+00 0. -1.
       -2   -1    0    0    0  501  0.00000000000E+00  0.00000000000E+00 -0.19333498811E+03  0.19333498811E+03  0.00000000000E+00 0.  1.
      -24    2    1    2    0    0  0.00000000000E+00  0.00000000000E+00 -0.18497904403E+03  0.20169093218E+03  0.80386475174E+02 0.  0.
       11    1    3    3    0    0  0.40162618977E+01  0.39957015829E+02 -0.88288981420E+02  0.96992977651E+02  0.00000000000E+00 0. -1.
      -12    1    3    3    0    0 -0.40162618977E+01 -0.39957015829E+02 -0.96690062615E+02  0.10469795453E+03  0.00000000000E+00 0.  1.
</event>
<event>
 5   1  0.6181100E+00  0.8239276E+02  0.7957747E-01  0.1321257E+00
        1   -1    0    0  501    0  0.00000000000E+00  0.00000000000E+00  0.66800217425E+02  0.66800217425E+02  0.00000000000E+00 0. -1.
       -2   -1    0    0    0  501  0.00000000000E+00  0.00000000000E+00 -0.25406232510E+02  0.25406232510E+02  0.00000000000E+00 0.  1.
      -24    2    1    2    0    0  0.00000000000E+00  0.00000000000E+00  0.41393984915E+02  0.92206449935E+02  0.82392763168E+02 0.  0.
       11    1    3    3    0    0  0.30620950729E+02 -0.10970827292E+02 -0.75954404152E+01  0.33401981829E+02  0.00000000000E+00 0. -1.
      -12    1    3    3    0    0 -0.30620950729E+02  0.10970827292E+02  0.48989425330E+02  0.58804468106E+02  0.00000000000E+00 0.  1.
</event>
<event>
 5   1  0.6181100E+00  0.8222994E+02  0.7957747E-01  0.1321679E+00
       -4   -1    0    0    0  501  0.00000000000E+00  0.00000000000E+00  0.54403609312E+02  0.54403609312E+02  0.00000000000E+00 0.  1.
        3   -1    0    0  501    0  0.00000000000E+00  0.00000000000E+00 -0.31072218978E+02  0.31072218978E+02  0.00000000000E+00 0. -1.
      -24    2    1    2    0    0  0.00000000000E+00  0.00000000000E+00  0.23331390335E+02  0.85475828290E+02  0.82229942521E+02 0.  0.
       11    1    3    3    0    0  0.18213038824E+02 -0.35584092635E+02  0.16684461066E+01  0.40009075773E+02  0.00000000000E+00 0. -1.
      -12    1    3    3    0    0 -0.18213038824E+02  0.35584092635E+02  0.21662944228E+02  0.45466752517E+02  0.00000000000E+00 0.  1.
</event>
<event>
 5   1  0.6181100E+00  0.8133878E+02  0.7957747E-01  0.1324005E+00
        1   -1    0    0  501    0  0.00000000000E+00  0.00000000000E+00  0.51139066463E+02  0.51139066463E+02  0.00000000000E+00 0. -1.
       -2   -1    0    0    0  501  0.00000000000E+00  0.00000000000E+00 -0.32343163207E+02  0.32343163207E+02  0.00000000000E+00 0.  1.
      -24    2    1    2    0    0  0.00000000000E+00  0.00000000000E+00  0.18795903256E+02  0.83482229670E+02  0.81338777292E+02 0.  0.
       11    1    3    3    0    0  0.15254961881E+02  0.18475074424E+02  0.43126652915E+02  0.49335083142E+02  0.00000000000E+00 0. -1.
      -12    1    3    3    0    0 -0.15254961881E+02 -0.18475074424E+02 -0.24330749659E+02  0.34147146527E+02  0.00000000000E+00 0.  1.
</event>
<event>
 5   1  0.6181100E+00  0.8043749E+02  0.7957747E-01  0.1326393E+00
       -2   -1    0    0    0  501  0.00000000000E+00  0.00000000000E+00  0.26490173162E+03  0.26490173162E+03  0.00000000000E+00 0.  1.
        1   -1    0    0  501    0  0.00000000000E+00  0.00000000000E+00 -0.61062164921E+01  0.61062164921E+01  0.00000000000E+00 0. -1.
      -24    2    1    2    0    0  0.00000000000E+00  0.00000000000E+00  0.25879551513E+03  0.27100794811E+03  0.80437486843E+02 0.  0.
       11    1    3    3    0    0 -0.38838571356E+02  0.89876670969E+01  0.11146357446E+03  0.11837795916E+03  0.00000000000E+00 0. -1.
      -12    1    3    3    0    0  0.38838571356E+02 -0.89876670969E+01  0.14733194067E+03  0.15262998895E+03  0.00000000000E+00 0.  1.
</event>
<event>
 5   1  0.6181100E+00  0.1090904E+03  0.7957747E-01  0.1264058E+00
       -4   -1    0    0    0  501  0.00000000000E+00  0.00000000000E+00  0.17731500630E+03  0.17731500630E+03  0.00000000000E+00 0.  1.
        3   -1    0    0  501    0  0.00000000000E+00  0.00000000000E+00 -0.16779065044E+02  0.16779065044E+02  0.00000000000E+00 0. -1.
      -24    2    1    2    0    0  0.00000000000E+00  0.00000000000E+00  0.16053594126E+03  0.19409407135E+03  0.10909042165E+03 0.  0.
       11    1    3    3    0    0 -0.46871789797E+01 -0.32373282392E+02  0.26086179183E+01  0.32814691025E+02  0.00000000000E+00 0. -1.
      -12    1    3    3    0    0  0.46871789797E+01  0.32373282392E+02  0.15792732334E+03  0.16127938032E+03  0.00000000000E+00 0.  1.
</event>
<event>
 5   1  0.6181100E+00  0.7860492E+02  0.7957747E-01  0.1331359E+00
        3   -1    0    0  501    0  0.00000000000E+00  0.00000000000E+00  0.35628519800E+01  0.35628519800E+01  0.00000000000E+00 0. -1.
       -4   -1    0    0    0  501  0.00000000000E+00  0.00000000000E+00 -0.43355245190E+03  0.43355245190E+03  0.00000000000E+00 0.  1.
      -24    2    1    2    0    0  0.00000000000E+00  0.00000000000E+00 -0.42998959992E+03  0.43711530388E+03  0.78604916174E+02 0.  0.
       11    1    3    3    0    0 -0.35810708944E+02 -0.71411794398E+01 -0.13416427731E+03  0.13904480079E+03  0.00000000000E+00 0. -1.
      -12    1    3    3    0    0  0.35810708944E+02  0.71411794398E+01 -0.29582532261E+03  0.29807050309E+03  0.00000000000E+00 0.  1.
</event>
<event>
 5   1  0.6181100E+00  0.8006122E+02  0.7957747E-01  0.1327400E+00
       -2   -1    0    0    0  501  0.00000000000E+00  0.00000000000E+00  0.28223233471E+02  0.28223233471E+02  0.00000000000E+00 0.  1.
        1   -1    0    0  501    0  0.00000000000E+00  0.00000000000E+00 -0.56777686499E+02  0.56777686499E+02  0.00000000000E+00 0. -1.
      -24    2    1    2    0    0  0.00000000000E+00  0.00000000000E+00 -0.28554453028E+02  0.85000919969E+02  0.80061224122E+02 0.  0.
       11    1    3    3    0    0  0.42069466578E+01 -0.36698714654E+02 -0.30654801181E+02  0.48002196751E+02  0.00000000000E+00 0. -1.
      -12    1    3    3    0    0 -0.42069466578E+01  0.36698714654E+02  0.21003481533E+01  0.36998723219E+02  0.00000000000E+00 0.  1.
</event>
<event>
 6   2  0.6181100E+00  0.7958561E+02  0.7957747E-01  0.1328683E+00
       -2   -1    0    0    0  501  0.00000000000E+00  0.00000000000E+00  0.35282797229E+02  0.35282797229E+02  0.00000000000E+00 0.  1.
        1   -1    0    0  502    0  0.00000000000E+00  0.00000000000E+00 -0.76409004327E+02  0.76409004327E+02  0.00000000000E+00 0. -1.
      -24    2    1    2    0    0  0.38416051080E+01  0.23770770396E+02 -0.28759392201E+02  0.84622528095E+02  0.75855534843E+02 0.  0.
       11    1    3    3    0    0 -0.11193884320E+02  0.35497600050E+02 -0.45822606556E+02  0.59034684102E+02  0.00000000000E+00 0. -1.
      -12    1    3    3    0    0  0.15035489428E+02 -0.11726829654E+02  0.17063214354E+02  0.25587843992E+02  0.00000000000E+00 0.  1.
       21    1    1    2  502  501 -0.38416051080E+01 -0.23770770396E+02 -0.12366814897E+02  0.27069273462E+02  0.00000000000E+00 0. -1.
</event>
<event>
 5   1  0.6181100E+00  0.8254590E+02  0.7957747E-01  0.1320862E+00
        3   -1    0    0  501    0  0.00000000000E+00  0.00000000000E+00  0.59157666034E+01  0.59157666034E+01  0.00000000000E+00 0. -1.
       -4   -1    0    0    0  501  0.00000000000E+00  0.00000000000E+00 -0.28795194139E+03  0.28795194139E+03  0.00000000000E+00 0.  1.
      -24    2    1    2    0    0  0.00000000000E+00  0.00000000000E+00 -0.28203617479E+03  0.29386770800E+03  0.82545901855E+02 0.  0.
       11    1    3    3    0    0  0.24361160338E+02 -0.76353158052E+01 -0.25566290784E+02  0.36130311442E+02  0.00000000000E+00 0. -1.
      -12    1    3    3    0    0 -0.24361160338E+02  0.76353158052E+01 -0.25646988401E+03  0.25773739656E+03  0.00000000000E+00 0.  1.
</event>
<event>
 5   1  0.6181100E+00  0.8195605E+02  0.7957747E-01  0.1322390E+00
        1   -1    0    0  501    0  0.00000000000E+00  0.00000000000E+00  0.19237632787E+01  0.19237632787E+01  0.00000000000E+00 0. -1.
       -2   -1    0    0    0  501  0.00000000000E+00  0.00000000000E+00 -0.87287162670E+03  0.87287162670E+03  0.00000000000E+00 0.  1.
      -24    2    1    2    0    0  0.00000000000E+00  0.00000000000E+00 -0.87094786342E+03  0.87479538998E+03  0.81956046329E+02 0.  0.
       11    1    3    3    0    0 -0.11922765655E+01 -0.25398121906E+02 -0.92457319423E+02  0.95889738943E+02  0.00000000000E+00 0. -1.
      -12    1    3    3    0    0  0.11922765655E+01  0.25398121906E+02 -0.77849054400E+03  0.77890565103E+03  0.00000000000E+00 0.  1.
</event>
<event>
 5   1  0.6181100E+00  0.8376909E+02  0.7957747E-01  0.1317738E+00
       -2   -1    0    0    0  501  0.00000000000E+00  0.00000000000E+00  0.18314605953E+03  0.18314605953E+03  0.00000000000E+00 0.  1.
        1   -1    0    0  501    0  0.00000000000E+00  0.00000000000E+00 -0.95787762687E+01  0.95787762687E+01  0.00000000000E+00 0. -1.
      -24    2    1    2    0    0  0.00000000000E+00  0.00000000000E+00  0.17356728326E+03  0.19272483580E+03  0.83769090451E+02 0.  0.
       11    1    3    3    0    0  0.39051920304E+02  0.15031194427E+02  0.90979345069E+02  0.10014105309E+03  0.00000000000E+00 0. -1.
      -12    1    3    3    0    0 -0.39051920304E+02 -0.15031194427E+02  0.82587938192E+02  0.92583782706E+02  0.00000000000E+00 0.  1.
</event>
<event>
 5   1  0.6181100E+00  0.8026959E+02  0.7957747E-01  0.1326842E+00
       -2   -1    0    0    0  501  0.00000000000E+00  0.00000000000E+00  0.15141144465E+02  0.15141144465E+02  0.00000000000E+00 0.  1.
        1   -1    0    0  501    0  0.00000000000E+00  0.00000000000E+00 -0.10638574125E+03  0.10638574125E+03  0.00000000000E+00 0. -1.
      -24    2    1    2    0    0  0.00000000000E+00  0.00000000000E+00 -0.91244596789E+02  0.12152688572E+03  0.80269592681E+02 0.  0.
       11    1    3    3    0    0 -0.12683673143E+02 -0.21273690289E+02 -0.93435354316E+02  0.96662355129E+02  0.00000000000E+00 0. -1.
      -12    1    3    3    0    0  0.12683673143E+02  0.21273690289E+02  0.21907575269E+01  0.24864530590E+02  0.00000000000E+00 0.  1.
</event>
<event>
 5   1  0.6181100E+00  0.7621995E+02  0.7957747E-01  0.1338056E+00
        1   -1    0    0  501    0  0.00000000000E+00  0.00000000000E+00  0.35564476139E+02  0.35564476139E+02  0.00000000000E+00 0. -1.
       -2   -1    0    0    0  501  0.00000000000E+00  0.00000000000E+00 -0.40837660613E+02  0.40837660613E+02  0.00000000000E+00 0.  1.
      -24    2    1    2    0    0  0.00000000000E+00  0.00000000000E+00 -0.52731844740E+01  0.76402136753E+02  0.76219945066E+02 0.  0.
       11    1    3    3    0    0  0.11747559833E+02  0.11802533513E+02  0.31724568603E+02  0.35829501984E+02  0.00000000000E+00 0. -1.
      -12    1    3    3    0    0 -0.11747559833E+02 -0.11802533513E+02 -0.36997753077E+02  0.40572634769E+02  0.00000000000E+00 0.  1.
</event>
<event>
 5   1  0.6181100E+00  0.8050346E+02  0.7957747E-01  0.1326217E+00
       -2   -1    0    0    0  501  0.00000000000E+00  0.00000000000E+00  0.13811052966E+03  0.13811052966E+03  0.00000000000E+00 0.  1.
        1   -1    0    0  501    0  0.00000000000E+00  0.00000000000E+00 -0.11731197915E+02  0.11731197915E+02  0.00000000000E+00 0. -1.
      -24    2    1    2    0    0  0.00000000000E+00  0.00000000000E+00  0.12637933175E+03  0.14984172758E+03  0.80503464710E+02 0.  0.
       11    1    3    3    0    0  0.85252679509E+00 -0.39941501382E+02  0.72336932955E+02  0.82635840916E+02  0.00000000000E+00 0. -1.
      -12    1    3    3    0    0 -0.85252679509E+00  0.39941501382E+02  0.54042398791E+02  0.67205886659E+02  0.00000000000E+00 0.  1.
</event>
<event>
 5   1  0.6181100E+00  0.8092260E+02  0.7957747E-01  0.1325103E+00
       -4   -1    0    0    0  501  0.00000000000E+00  0.00000000000E+00  0.54579565877E+02  0.54579565877E+02  0.00000000000E+00 0.  1.
        3   -1    0    0  501    0  0.00000000000E+00  0.00000000000E+00 -0.29995051617E+02  0.29995051617E+02  0.00000000000E+00 0. -1.
      -24    2    1    2    0    0  0.00000000000E+00  0.00000000000E+00  0.24584514260E+02  0.84574617493E+02  0.80922602422E+02 0.  0.
       11    1    3    3    0    0  0.34212380701E+02 -0.18346531562E+02  0.24210158896E+02  0.45751655788E+02  0.00000000000E+00 0. -1.
      -12    1    3    3    0    0 -0.34212380701E+02  0.18346531562E+02  0.37435536430E+00  0.38822961705E+02  0.00000000000E+00 0.  1.
</event>
<event>
 4   1  0.6181100E+00  0.4671642E+02  0.7957747E-01  0.1454289E+00
       -2   -1    0    0    0  501  0.00000000000E+00  0.00000000000E+00  0.17772477024E+03  0.17772477024E+03  0.00000000000E+00 0.  1.
        1   -1    0    0  501    0  0.00000000000E+00  0.00000000000E+00 -0.30699489244E+01  0.30699489244E+01  0.00000000000E+00 0. -1.
       11    1    1    2    0    0 -0.13776726449E+01  0.18339405479E+02  0.31596833207E+02  0.36559426198E+02  0.00000000000E+00 0. -1.
      -12    1    1    2    0    0  0.13776726449E+01 -0.18339405479E+02  0.14305798811E+03  0.14423529296E+03  0.00000000000E+00 0.  1.
</event>
<event>
 5   1  0.6181100E+00  0.7235374E+02  0.7957747E-01  0.1349526E+00
        1   -1    0    0  501    0  0.00000000000E+00  0.00000000000E+00  0.50133925805E+02  0.50133925805E+02  0.00000000000E+00 0. -1.
       -2   -1    0    0    0  501  0.00000000000E+00  0.00000000000E+00 -0.26105391686E+02  0.26105391686E+02  0.00000000000E+00 0.  1.
      -24    2    1    2    0    0  0.00000000000E+00  0.00000000000E+00  0.24028534119E+02  0.76239317491E+02  0.72353735767E+02 0.  0.
       11    1    3    3    0    0  0.78075741605E+01 -0.32759735977E+02  0.25937791511E+02  0.42507970359E+02  0.00000000000E+00 0. -1.
      -12    1    3    3    0    0 -0.78075741605E+01  0.32759735977E+02 -0.19092573912E+01  0.33731347132E+02  0.00000000000E+00 0.  1.
</event>
<event>
 5   1  0.6181100E+00  0.8394536E+02  0.7957747E-01  0.1317293E+00
        3   -1    0    0  501    0  0.00000000000E+00  0.00000000000E+00  0.43619058659E+01  0.43619058659E+01  0.00000000000E+00 0. -1.
       -4   -1    0    0    0  501  0.00000000000E+00  0.00000000000E+00 -0.40388447352E+03  0.40388447352E+03  0.00000000000E+00 0.  1.
      -24    2    1    2    0    0  0.00000000000E+00  0.00000000000E+00 -0.39952256765E+03  0.40824637938E+03  0.83945364474E+02 0.  0.
       11    1    3    3    0    0 -0.24121364054E+02  0.14753392272E+02 -0.48906517570E+02  0.56492037034E+02  0.00000000000E+00 0. -1.
      -12    1    3    3    0    0  0.24121364054E+02 -0.14753392272E+02 -0.35061605008E+03  0.35175434235E+03  0.00000000000E+00 0.  1.
</event>
<event>
 5   1  0.6181100E+00  0.7492421E+02  0.7957747E-01  0.1341812E+00
       -2   -1    0    0    0  501  0.00000000000E+00  0.00000000000E+00  0.30269429882E+02  0.30269429882E+02  0.00000000000E+00 0.  1.
        1   -1    0    0  501    0  0.00000000000E+00  0.00000000000E+00 -0.46363913875E+02  0.46363913875E+02  0.00000000000E+00 0. -1.
      -24    2    1    2    0    0  0.00000000000E+00  0.00000000000E+00 -0.16094483993E+02  0.76633343757E+02  0.74924208106E+02 0.  0.
       11    1    3    3    0    0 -0.24774267293E+02  0.19626865277E+02 -0.28616464472E+02  0.42636606331E+02  0.00000000000E+00 0. -1.
      -12    1    3    3    0    0  0.24774267293E+02 -0.19626865277E+02  0.12521980478E+02  0.33996737426E+02  0.00000000000E+00 0.  1.
</event>
<event>
 6   2  0.6181100E+00  0.8021843E+02  0.7957747E-01  0.1326979E+00
       21   -1    0    0  501  502  0.00000000000E+00  0.00000000000E+00  0.26253252702E+02  0.26253252702E+02  0.00000000000E+00 0. -1.
        3   -1    0    0  502    0  0.00000000000E+00  0.00000000000E+00 -0.13301789787E+03  0.13301789787E+03  0.00000000000E+00 0. -1.
      -24    2    1    2    0    0 -0.55540918258E+01  0.22350497610E+02 -0.10986383384E+03  0.13603330106E+03  0.76841423278E+02 0.  0.
       11    1    3    3    0    0  0.12023233643E+01  0.26389720302E+02 -0.12018435298E+03  0.12305340963E+03  0.00000000000E+00 0. -1.
      -12    1    3    3    0    0 -0.67564151901E+01 -0.40392226922E+01  0.10320519143E+02  0.12979891431E+02  0.00000000000E+00 0.  1.
        4    1    1    2  501    0  0.55540918258E+01 -0.22350497610E+02  0.30991886764E+01  0.23237849510E+02  0.00000000000E+00 0. -1.
</event>
<event>
 4   3  0.6181100E+00  0.2152337E+03  0.7957747E-01  0.1144138E+00
       -2   -1    0    0    0  501  0.00000000000E+00  0.00000000000E+00  0.13638755689E+03  0.13638755689E+03  0.00000000000E+00 0.  1.
        2   -1    0    0  502    0  0.00000000000E+00  0.00000000000E+00 -0.45759421817E+03  0.45759421817E+03  0.00000000000E+00 0. -1.
        6    1    1    2  502    0  0.12292695025E+03 -0.35854182682E+02 -0.98313580360E+01  0.21545814701E+03  0.17300000000E+03 0.  1.
       -6    1    1    2    0  501 -0.12292695025E+03  0.35854182682E+02 -0.31137530325E+03  0.37852362804E+03  0.17300000000E+03 0. -1.
</event>
<event>
 5   1  0.6181100E+00  0.8050671E+02  0.7957747E-01  0.1326208E+00
        1   -1    0    0  501    0  0.00000000000E+00  0.00000000000E+00  0.16330204108E+02  0.16330204108E+02  0.00000000000E+00 0. -1.
       -2   -1    0    0    0  501  0.00000000000E+00  0.00000000000E+00 -0.99223051789E+02  0.99223051789E+02  0.00000000000E+00 0.  1.
      -24    2    1    2    0    0  0.00000000000E+00  0.00000000000E+00 -0.82892847682E+02  0.11555325590E+03  0.80506712463E+02 0.  0.
       11    1    3    3    0    0 -0.37552351533E+02  0.10379700652E+02 -0.26920869339E+02  0.47356630974E+02  0.00000000000E+00 0. -1.
      -12    1    3    3    0    0  0.37552351533E+02 -0.10379700652E+02 -0.55971978343E+02  0.68196624923E+02  0.00000000000E+00 0.  1.
</event>
<event>
 5   1  0.6181100E+00  0.7922274E+02  0.7957747E-01  0.1329668E+00
        1   -1    0    0  501    0  0.00000000000E+00  0.00000000000E+00  0.80634875550E+02  0.80634875550E+02  0.00000000000E+00 0. -1.
       -2   -1    0    0    0  501  0.00000000000E+00  0.00000000000E+00 -0.19458835220E+02  0.19458835220E+02  0.00000000000E+00 0.  1.
      -24    2    1    2    0    0  0.00000000000E+00  0.00000000000E+00  0.61176040330E+02  0.10009371077E+03  0.79222743106E+02 0.  0.
       11    1    3    3    0    0 -0.28067408793E+02  0.23548210504E+02  0.49613828130E+02  0.61675194333E+02  0.00000000000E+00 0. -1.
      -12    1    3    3    0    0  0.28067408793E+02 -0.23548210504E+02  0.11562212201E+02  0.38418516438E+02  0.00000000000E+00 0.  1.
</event>
<event>
 5   1  0.6181100E+00  0.8066342E+02  0.7957747E-01  0.1325791E+00
       -2   -1    0    0    0  501  0.00000000000E+00  0.00000000000E+00  0.12148936893E+04  0.12148936893E+04  0.00000000000E+00 0.  1.
        1   -1    0    0  501    0  0.00000000000E+00  0.00000000000E+00 -0.13389212630E+01  0.13389212630E+01  0.00000000000E+00 0. -1.
      -24    2    1    2    0    0  0.00000000000E+00  0.00000000000E+00  0.12135547680E+04  0.12162326105E+04  0.80663424001E+02 0.  0.
       11    1    3    3    0    0  0.18531785865E+02 -0.17670193635E+02  0.13694162897E+03  0.13931501203E+03  0.00000000000E+00 0. -1.
      -12    1    3    3    0    0 -0.18531785865E+02  0.17670193635E+02  0.10766131390E+04  0.10769175985E+04  0.00000000000E+00 0.  1.
</event>
<event>
 5   1  0.6181100E+00  0.8314425E+02  0.7957747E-01  0.1319326E+00
        1   -1    0    0  501    0  0.00000000000E+00  0.00000000000E+00  0.74626911030E+01  0.74626911030E+01  0.00000000000E+00 0. -1.
       -2   -1    0    0    0  501  0.00000000000E+00  0.00000000000E+00 -0.23158422553E+03  0.23158422553E+03  0.00000000000E+00 0.  1.
      -24    2    1    2    0    0  0.00000000000E+00  0.00000000000E+00 -0.22412153443E+03  0.23904691664E+03  0.83144249097E+02 0.  0.
       11    1    3    3    0    0  0.96015980565E+01 -0.34257001759E+02 -0.50229111385E+02  0.61552388137E+02  0.00000000000E+00 0. -1.
      -12    1    3    3    0    0 -0.96015980565E+01  0.34257001759E+02 -0.17389242305E+03  0.17749452850E+03  0.00000000000E+00 0.  1.
</event>
<event>
 4   3  0.6181100E+00  0.2832806E+03  0.7957747E-01  0.1101879E+00
       21   -1    0    0  501  502  0.00000000000E+00  0.00000000000E+00  0.31081928145E+03  0.31081928145E+03  0.00000000000E+00 0. -1.
       21   -1    0    0  502  503  0.00000000000E+00  0.00000000000E+00 -0.27887779081E+03  0.27887779081E+03  0.00000000000E+00 0.  1.
        6    1    1    2  501    0 -0.22401744104E+03 -0.11621692158E+02  0.96292882548E+02  0.29919925944E+03  0.17300000000E+03 0. -1.
       -6    1    1    2    0  503  0.22401744104E+03  0.11621692158E+02 -0.64351391899E+02  0.29049781283E+03  0.17300000000E+03 0.  1.
</event>
<event>
 5   1  0.6181100E+00  0.8196443E+02  0.7957747E-01  0.1322368E+00
        1   -1    0    0  501    0  0.00000000000E+00  0.00000000000E+00  0.15409472933E+03  0.15409472933E+03  0.00000000000E+00 0. -1.
       -2   -1    0    0    0  501  0.00000000000E+00  0.00000000000E+00 -0.10899413299E+02  0.10899413299E+02  0.00000000000E+00 0.  1.
      -24    2    1    2    0    0  0.00000000000E+00  0.00000000000E+00  0.14319531603E+03  0.16499414263E+03  0.81964434780E+02 0.  0.
       11    1    3    3    0    0  0.30879117396E+02 -0.94307603066E+01  0.12240670985E+03  0.12659329266E+03  0.00000000000E+00 0. -1.
      -12    1    3    3    0    0 -0.30879117396E+02  0.94307603066E+01  0.20788606179E+02  0.38400849964E+02  0.00000000000E+00 0.  1.
</event>
<event>
 5   1  0.6181100E+00  0.7940644E+02  0.7957747E-01  0.1329168E+00
        3   -1    0    0  501    0  0.00000000000E+00  0.00000000000E+00  0.53256370332E+01  0.53256370332E+01  0.00000000000E+00 0. -1.
       -4   -1    0    0    0  501  0.00000000000E+00  0.00000000000E+00 -0.29599197504E+03  0.29599197504E+03  0.00000000000E+00 0.  1.
      -24    2    1    2    0    0  0.00000000000E+00  0.00000000000E+00 -0.29066633801E+03  0.30131761207E+03  0.79406443663E+02 0.  0.
       11    1    3    3    0    0 -0.23880894561E+02  0.94176581329E+01 -0.30402000547E+02  0.39790338614E+02  0.00000000000E+00 0. -1.
      -12    1    3    3    0    0  0.23880894561E+02 -0.94176581329E+01 -0.26026433746E+03  0.26152727346E+03  0.00000000000E+00 0.  1.
</event>
<event>
 5   1  0.6181100E+00  0.8073075E+02  0.7957747E-01  0.1325612E+00
       -2   -1    0    0    0  501  0.00000000000E+00  0.00000000000E+00  0.14611978735E+02  0.14611978735E+02  0.00000000000E+00 0.  1.
        1   -1    0    0  501    0  0.00000000000E+00  0.00000000000E+00 -0.11150874366E+03  0.11150874366E+03  0.00000000000E+00 0. -1.
      -24    2    1    2    0    0  0.00000000000E+00  0.00000000000E+00 -0.96896764930E+02  0.12612072240E+03  0.80730747333E+02 0.  0.
       11    1    3    3    0    0  0.13397745486E+02  0.37296055458E+02 -0.60434742487E+02  0.72269311857E+02  0.00000000000E+00 0. -1.
      -12    1    3    3    0    0 -0.13397745486E+02 -0.37296055458E+02 -0.36462022442E+02  0.53851410543E+02  0.00000000000E+00 0.  1.
</event>
<event>
 5   1  0.6181100E+00  0.8507383E+02  0.7957747E-01  0.1314471E+00
        3   -1    0    0  501    0  0.00000000000E+00  0.00000000000E+00  0.41938329138E+01  0.41938329138E+01  0.00000000000E+00 0. -1.
       -4   -1    0    0    0  501  0.00000000000E+00  0.00000000000E+00 -0.43144047952E+03  0.43144047952E+03  0.00000000000E+00 0.  1.
      -24    2    1    2    0    0  0.00000000000E+00  0.00000000000E+00 -0.42724664661E+03  0.43563431244E+03  0.85073833424E+02 0.  0.
       11    1    3    3    0    0  0.59775888038E+01 -0.92262532409E+01 -0.32062491427E+01  0.11451434423E+02  0.00000000000E+00 0. -1.
      -12    1    3    3    0    0 -0.59775888038E+01  0.92262532409E+01 -0.42404039747E+03  0.42418287801E+03  0.00000000000E+00 0.  1.
</event>
<event>
 5   1  0.6181100E+00  0.8070614E+02  0.7957747E-01  0.1325678E+00
        1   -1    0    0  501    0  0.00000000000E+00  0.00000000000E+00  0.86465457080E+02  0.86465457080E+02  0.00000000000E+00 0. -1.
       -2   -1    0    0    0  501  0.00000000000E+00  0.00000000000E+00 -0.18832610811E+02  0.18832610811E+02  0.00000000000E+00 0.  1.
      -24    2    1    2    0    0  0.00000000000E+00  0.00000000000E+00  0.67632846268E+02  0.10529806789E+03  0.80706141074E+02 0.  0.
       11    1    3    3    0    0  0.29497723434E+02  0.20881471783E+02  0.57236548991E+02  0.67691757932E+02  0.00000000000E+00 0. -1.
      -12    1    3    3    0    0 -0.29497723434E+02 -0.20881471783E+02  0.10396297278E+02  0.37606309958E+02  0.00000000000E+00 0.  1.
</event>
<event>
 5   1  0.6181100E+00  0.8121342E+02  0.7957747E-01  0.1324335E+00
       -2   -1    0    0    0  501  0.00000000000E+00  0.00000000000E+00  0.12484428278E+03  0.12484428278E+03  0.00000000000E+00 0.  1.
        1   -1    0    0  501    0  0.00000000000E+00  0.00000000000E+00 -0.13207691828E+02  0.13207691828E+02  0.00000000000E+00 0. -1.
      -24    2    1    2    0    0  0.00000000000E+00  0.00000000000E+00  0.11163659095E+03  0.13805197461E+03  0.81213417942E+02 0.  0.
       11    1    3    3    0    0  0.31858859930E+00 -0.23141454438E+02 -0.89910738619E+00  0.23161105464E+02  0.00000000000E+00 0. -1.
      -12    1    3    3    0    0 -0.31858859930E+00  0.23141454438E+02  0.11253569834E+03  0.11489086914E+03  0.00000000000E+00 0.  1.
</event>
<event>
 5   1  0.6181100E+00  0.7540891E+02  0.7957747E-01  0.1340397E+00
       -2   -1    0    0    0  501  0.00000000000E+00  0.00000000000E+00  0.57937180118E+01  0.57937180118E+01  0.00000000000E+00 0.  1.
        1   -1    0    0  501    0  0.00000000000E+00  0.00000000000E+00 -0.24537367048E+03  0.24537367048E+03  0.00000000000E+00 0. -1.
      -24    2    1    2    0    0  0.00000000000E+00  0.00000000000E+00 -0.23957995247E+03  0.25116738849E+03  0.75408908075E+02 0.  0.
       11    1    3    3    0    0  0.25426548132E+02 -0.27713544066E+02 -0.11092997290E+03  0.11713244112E+03  0.00000000000E+00 0. -1.
      -12    1    3    3    0    0 -0.25426548132E+02  0.27713544066E+02 -0.12864997956E+03  0.13403494737E+03  0.00000000000E+00 0.  1.
</event>
<event>
 6   2  0.6181100E+00  0.1084324E+03  0.7957747E-01  0.1265238E+00
        1   -1    0    0  502    0  0.00000000000E+00  0.00000000000E+00  0.35339405174E+03  0.35339405174E+03  0.00000000000E+00 0. -1.
       -2   -1    0    0    0  501  0.00000000000E+00  0.00000000000E+00 -0.16248049714E+03  0.16248049714E+03  0.00000000000E+00 0.  1.
      -24    2    1    2    0    0 -0.93907626510E+01  0.74104052602E+02 -0.13974763896E+03  0.17688130122E+03  0.78600223236E+02 0.  0.
       11    1    3    3    0    0  0.27351979616E+02  0.42273669415E+02 -0.34755973763E+02  0.61181464734E+02  0.00000000000E+00 0. -1.
      -12    1    3    3    0    0 -0.36742742267E+02  0.31830383187E+02 -0.10499166520E+03  0.11569983649E+03  0.00000000000E+00 0.  1.
       21    1    1    2  502  501  0.93907626510E+01 -0.74104052602E+02  0.33066119355E+03  0.33899324766E+03  0.00000000000E+00 0. -1.
</event>
<event>
 5   1  0.6181100E+00  0.8070949E+02  0.7957747E-01  0.1325669E+00
        1   -1    0    0  501    0  0.00000000000E+00  0.00000000000E+00  0.58797098321E+02  0.58797098321E+02  0.00000000000E+00 0. -1.
       -2   -1    0    0    0  501  0.00000000000E+00  0.00000000000E+00 -0.27697039218E+02  0.27697039218E+02  0.00000000000E+00 0.  1.
      -24    2    1    2    0    0  0.00000000000E+00  0.00000000000E+00  0.31100059104E+02  0.86494137539E+02  0.80709492331E+02 0.  0.
       11    1    3    3    0    0  0.39317170680E+02  0.57661411562E+01  0.23083608042E+02  0.45955862024E+02  0.00000000000E+00 0. -1.
      -12    1    3    3    0    0 -0.39317170680E+02 -0.57661411562E+01  0.80164510617E+01  0.40538275515E+02  0.00000000000E+00 0.  1.
</event>
<event>
 6   2  0.6181100E+00  0.7845352E+02  0.7957747E-01  0.1331776E+00
        1   -1    0    0  502    0  0.00000000000E+00  0.00000000000E+00  0.26908023033E+02  0.26908023033E+02  0.00000000000E+00 0. -1.
       -2   -1    0    0    0  501  0.00000000000E+00  0.00000000000E+00 -0.90516924716E+02  0.90516924716E+02  0.00000000000E+00 0.  1.
      -24    2    1    2    0    0 -0.15049449081E+02  0.13536222691E+02 -0.49909192784E+02  0.92983236142E+02  0.75797357715E+02 0.  0.
       11    1    3    3    0    0 -0.22774520245E+02 -0.19660387877E+02  0.27973171844E+01  0.30216462521E+02  0.00000000000E+00 0. -1.
      -12    1    3    3    0    0  0.77250711637E+01  0.33196610568E+02 -0.52706509968E+02  0.62766773621E+02  0.00000000000E+00 0.  1.
       21    1    1    2  502  501  0.15049449081E+02 -0.13536222691E+02 -0.13699708899E+02  0.24441711608E+02  0.00000000000E+00 0.  1.
</event>
<event>
 4   3  0.6181100E+00  0.1766759E+03  0.7957747E-01  0.1176563E+00
       21   -1    0    0  503  502  0.00000000000E+00  0.00000000000E+00  0.69242373279E+03  0.69242373279E+03  0.00000000000E+00 0. -1.
       21   -1    0    0  501  503  0.00000000000E+00  0.00000000000E+00 -0.20643527862E+03  0.20643527862E+03  0.00000000000E+00 0. -1.
        6    1    1    2  501    0  0.23891603514E+02 -0.26731369475E+02 -0.15434494284E+03  0.23459909679E+03  0.17300000000E+03 0. -1.
       -6    1    1    2    0  502 -0.23891603514E+02  0.26731369475E+02  0.64033339702E+03  0.66425991462E+03  0.17300000000E+03 0. -1.
</event>
<event>
 6   2  0.6181100E+00  0.8469459E+02  0.7957747E-01  0.1315414E+00
        1   -1    0    0  502    0  0.00000000000E+00  0.00000000000E+00  0.18276707740E+03  0.18276707740E+03  0.00000000000E+00 0. -1.
       21   -1    0    0  501  502  0.00000000000E+00  0.00000000000E+00 -0.19900099422E+02  0.19900099422E+02  0.00000000000E+00 0.  1.
      -24    2    1    2    0    0  0.89549886707E+00 -0.22169066562E+02  0.78665797762E+02  0.11559187504E+03  0.81736799592E+02 0.  0.
       11    1    3    3    0    0 -0.26885008783E+02  0.13613158411E+02  0.58911554052E+02  0.66171693193E+02  0.00000000000E+00 0. -1.
      -12    1    3    3    0    0  0.27780507650E+02 -0.35782224973E+02  0.19754243710E+02  0.49420181848E+02  0.00000000000E+00 0.  1.
        2    1    1    2  501    0 -0.89549886707E+00  0.22169066562E+02  0.84201180217E+02  0.87075301782E+02  0.00000000000E+00 0. -1.
</event>
<event>
 5   1  0.6181100E+00  0.8326526E+02  0.7957747E-01  0.1319017E+00
       -4   -1    0    0    0  501  0.00000000000E+00  0.00000000000E+00  0.39656909183E+02  0.39656909183E+02  0.00000000000E+00 0.  1.
        3   -1    0    0  501    0  0.00000000000E+00  0.00000000000E+00 -0.43706781072E+02  0.43706781072E+02  0.00000000000E+00 0. -1.
      -24    2    1    2    0    0  0.00000000000E+00  0.00000000000E+00 -0.40498718894E+01  0.83363690255E+02  0.83265259206E+02 0.  0.
       11    1    3    3    0    0  0.23928016132E+02  0.23159947833E+02 -0.27041324559E+02  0.42897160437E+02  0.00000000000E+00 0. -1.
      -12    1    3    3    0    0 -0.23928016132E+02 -0.23159947833E+02  0.22991452670E+02  0.40466529818E+02  0.00000000000E+00 0.  1.
</event>
<event>
 5   1  0.6181100E+00  0.7849318E+02  0.7957747E-01  0.1331667E+00
        1   -1    0    0  501    0  0.00000000000E+00  0.00000000000E+00  0.24123872832E+02  0.24123872832E+02  0.00000000000E+00 0. -1.
       -2   -1    0    0    0  501  0.00000000000E+00  0.00000000000E+00 -0.63849403154E+02  0.63849403154E+02  0.00000000000E+00 0.  1.
      -24    2    1    2    0    0  0.00000000000E+00  0.00000000000E+00 -0.39725530322E+02  0.87973275985E+02  0.78493181412E+02 0.  0.
       11    1    3    3    0    0 -0.14726256896E+02 -0.36369112581E+02 -0.20813702463E+02  0.44416046676E+02  0.00000000000E+00 0. -1.
      -12    1    3    3    0    0  0.14726256896E+02  0.36369112581E+02 -0.18911827860E+02  0.43557229310E+02  0.00000000000E+00 0.  1.
</event>
<event>
 5   1  0.6181100E+00  0.8069755E+02  0.7957747E-01  0.1325700E+00
        3   -1    0    0  501    0  0.00000000000E+00  0.00000000000E+00  0.13043637609E+02  0.13043637609E+02  0.00000000000E+00 0. -1.
       -4   -1    0    0    0  501  0.00000000000E+00  0.00000000000E+00 -0.12481362104E+03  0.12481362104E+03  0.00000000000E+00 0.  1.
      -24    2    1    2    0    0  0.00000000000E+00  0.00000000000E+00 -0.11176998343E+03  0.13785725865E+03  0.80697549938E+02 0.  0.
       11    1    3    3    0    0  0.22713582672E+02 -0.30294986026E+01  0.84921989804E+00  0.22930457344E+02  0.00000000000E+00 0. -1.
      -12    1    3    3    0    0 -0.22713582672E+02  0.30294986026E+01 -0.11261920333E+03  0.11492680130E+03  0.00000000000E+00 0.  1.
</event>
<event>
 5   1  0.6181100E+00  0.8025754E+02  0.7957747E-01  0.1326874E+00
       -4   -1    0    0    0  501  0.00000000000E+00  0.00000000000E+00  0.93339961633E+02  0.93339961633E+02  0.00000000000E+00 0.  1.
        3   -1    0    0  501    0  0.00000000000E+00  0.00000000000E+00 -0.17252182675E+02  0.17252182675E+02  0.00000000000E+00 0. -1.
      -24    2    1    2    0    0  0.00000000000E+00  0.00000000000E+00  0.76087778957E+02  0.11059214431E+03  0.80257537191E+02 0.  0.
       11    1    3    3    0    0  0.15119620182E+02  0.31405836075E+02  0.10643891545E+02  0.36444778518E+02  0.00000000000E+00 0. -1.
      -12    1    3    3    0    0 -0.15119620182E+02 -0.31405836075E+02  0.65443887413E+02  0.74147365791E+02  0.00000000000E+00 0.  1.
</event>
<event>
 5   1  0.6181100E+00  0.7941322E+02  0.7957747E-01  0.1329150E+00
        1   -1    0    0  501    0  0.00000000000E+00  0.00000000000E+00  0.13434930280E+03  0.13434930280E+03  0.00000000000E+00 0. -1.
       -2   -1    0    0    0  501  0.00000000000E+00  0.00000000000E+00 -0.11735193244E+02  0.11735193244E+02  0.00000000000E+00 0.  1.
      -24    2    1    2    0    0  0.00000000000E+00  0.00000000000E+00  0.12261410955E+03  0.14608449604E+03  0.79413223849E+02 0.  0.
       11    1    3    3    0    0 -0.19338383037E+02  0.13227380759E+02  0.12027824696E+03  0.12253894626E+03  0.00000000000E+00 0. -1.
      -12    1    3    3    0    0  0.19338383037E+02 -0.13227380759E+02  0.23358625951E+01  0.23545549777E+02  0.00000000000E+00 0.  1.
</event>
<event>
 5   1  0.6181100E+00  0.8110780E+02  0.7957747E-01  0.1324614E+00
       -2   -1    0    0    0  501  0.00000000000E+00  0.00000000000E+00  0.88375824972E+02  0.88375824972E+02  0.00000000000E+00 0.  1.
        1   -1    0    0  501    0  0.00000000000E+00  0.00000000000E+00 -0.18609375151E+02  0.18609375151E+02  0.00000000000E+00 0. -1.
      -24    2    1    2    0    0  0.00000000000E+00  0.00000000000E+00  0.69766449821E+02  0.10698520012E+03  0.81107801874E+02 0.  0.
       11    1    3    3    0    0 -0.22229956313E+02  0.33241632112E+02  0.43775009251E+02  0.59291049056E+02  0.00000000000E+00 0. -1.
      -12    1    3    3    0    0  0.22229956313E+02 -0.33241632112E+02  0.25991440570E+02  0.47694151068E+02  0.00000000000E+00 0.  1.
</event>
<event>
 5   1  0.6181100E+00  0.8173723E+02  0.7957747E-01  0.1322961E+00
        3   -1    0    0  501    0  0.00000000000E+00  0.00000000000E+00  0.65520300031E+01  0.65520300031E+01  0.00000000000E+00 0. -1.
       -4   -1    0    0    0  501  0.00000000000E+00  0.00000000000E+00 -0.25492003064E+03  0.25492003064E+03  0.00000000000E+00 0.  1.
      -24    2    1    2    0    0  0.00000000000E+00  0.00000000000E+00 -0.24836800064E+03  0.26147206064E+03  0.81737229930E+02 0.  0.
       11    1    3    3    0    0  0.34406284185E+02  0.13272773339E+02 -0.67835077976E+02  0.77211117771E+02  0.00000000000E+00 0. -1.
      -12    1    3    3    0    0 -0.34406284185E+02 -0.13272773339E+02 -0.18053292266E+03  0.18426094287E+03  0.00000000000E+00 0.  1.
</event>
<event>
 5   1  0.6181100E+00  0.8114665E+02  0.7957747E-01  0.1324511E+00
       -2   -1    0    0    0  501  0.00000000000E+00  0.00000000000E+00  0.18724170564E+03  0.18724170564E+03  0.00000000000E+00 0.  1.
        1   -1    0    0  501    0  0.00000000000E+00  0.00000000000E+00 -0.87918174951E+01  0.87918174951E+01  0.00000000000E+00 0. -1.
      -24    2    1    2    0    0  0.00000000000E+00  0.00000000000E+00  0.17844988815E+03  0.19603352314E+03  0.81146654977E+02 0.  0.
       11    1    3    3    0    0  0.52957046000E+01 -0.40211943827E+02  0.91815582101E+02  0.10037502692E+03  0.00000000000E+00 0. -1.
      -12    1    3    3    0    0 -0.52957046000E+01  0.40211943827E+02  0.86634306046E+02  0.95658496213E+02  0.00000000000E+00 0.  1.
</event>
<event>
 5   1  0.6181100E+00  0.7961274E+02  0.7957747E-01  0.1328609E+00
       -2   -1    0    0    0  501  0.00000000000E+00  0.00000000000E+00  0.43106897205E+02  0.43106897205E+02  0.00000000000E+00 0.  1.
        1   -1    0    0  501    0  0.00000000000E+00  0.00000000000E+00 -0.36758547874E+02  0.36758547874E+02  0.00000000000E+00 0. -1.
      -24    2    1    2    0    0  0.00000000000E+00  0.00000000000E+00  0.63483493312E+01  0.79865445079E+02  0.79612736283E+02 0.  0.
       11    1    3    3    0    0  0.27014380384E+02 -0.20866575044E+02 -0.17369017178E+02  0.38299784063E+02  0.00000000000E+00 0. -1.
      -12    1    3    3    0    0 -0.27014380384E+02  0.20866575044E+02  0.23717366509E+02  0.41565661016E+02  0.00000000000E+00 0.  1.
</event>
<event>
 4   3  0.6181100E+00  0.2298964E+03  0.7957747E-01  0.1133707E+00
       21   -1    0    0  503  502  0.00000000000E+00  0.00000000000E+00  0.11847061287E+04  0.11847061287E+04  0.00000000000E+00 0.  1.
       21   -1    0    0  501  503  0.00000000000E+00  0.00000000000E+00 -0.11936303742E+03  0.11936303742E+03  0.00000000000E+00 0.  1.
        6    1    1    2  501    0  0.14396423614E+03 -0.46879369127E+02  0.16678726191E+02  0.23050066474E+03  0.17300000000E+03 0.  1.
       -6    1    1    2    0  502 -0.14396423614E+03  0.46879369127E+02  0.10486643651E+04  0.10735685014E+04  0.17300000000E+03 0.  1.
</event>
<event>
 4   3  0.6181100E+00  0.1891235E+03  0.7957747E-01  0.1165174E+00
       21   -1    0    0  501  502  0.00000000000E+00  0.00000000000E+00  0.33658557100E+03  0.33658557100E+03  0.00000000000E+00 0.  1.
       21   -1    0    0  502  503  0.00000000000E+00  0.00000000000E+00 -0.21109165711E+03  0.21109165711E+03  0.00000000000E+00 0.  1.
        6    1    1    2  501    0  0.29601328395E+01 -0.76354058578E+02  0.25571807818E+03  0.31805571864E+03  0.17300000000E+03 0.  1.
       -6    1    1    2    0  503 -0.29601328395E+01  0.76354058578E+02 -0.13022416430E+03  0.22962150948E+03  0.17300000000E+03 0.  1.
</event>
<event>
 5   1  0.6181100E+00  0.8150750E+02  0.7957747E-01  0.1323562E+00
       -2   -1    0    0    0  501  0.00000000000E+00  0.00000000000E+00  0.27338880201E+02  0.27338880201E+02  0.00000000000E+00 0.  1.
        1   -1    0    0  501    0  0.00000000000E+00  0.00000000000E+00 -0.60751139909E+02  0.60751139909E+02  0.00000000000E+00 0. -1.
      -24    2    1    2    0    0  0.00000000000E+00  0.00000000000E+00 -0.33412259708E+02  0.88090020111E+02  0.81507499927E+02 0.  0.
       11    1    3    3    0    0  0.19401314188E+02  0.31158432096E+02 -0.35845320611E+02  0.51304443205E+02  0.00000000000E+00 0. -1.
      -12    1    3    3    0    0 -0.19401314188E+02 -0.31158432096E+02  0.24330609033E+01  0.36785576905E+02  0.00000000000E+00 0.  1.
</event>
<event>
 5   1  0.6181100E+00  0.8152148E+02  0.7957747E-01  0.1323526E+00
       -2   -1    0    0    0  501  0.00000000000E+00  0.00000000000E+00  0.16561097707E+03  0.16561097707E+03  0.00000000000E+00 0.  1.
        1   -1    0    0  501    0  0.00000000000E+00  0.00000000000E+00 -0.10032173917E+02  0.10032173917E+02  0.00000000000E+00 0. -1.
      -24    2    1    2    0    0  0.00000000000E+00  0.00000000000E+00  0.15557880315E+03  0.17564315099E+03  0.81521484888E+02 0.  0.
       11    1    3    3    0    0 -0.26777581326E+02 -0.27422339396E+01  0.11841499161E+02  0.29407138776E+02  0.00000000000E+00 0. -1.
      -12    1    3    3    0    0  0.26777581326E+02  0.27422339396E+01  0.14373730399E+03  0.14623601221E+03  0.00000000000E+00 0.  1.
</event>
<event>
 5   1  0.6181100E+00  0.8049708E+02  0.7957747E-01  0.1326234E+00
        3   -1    0    0  501    0  0.00000000000E+00  0.00000000000E+00  0.19927548660E+01  0.19927548660E+01  0.00000000000E+00 0. -1.
       -4   -1    0    0    0  501  0.00000000000E+00  0.00000000000E+00 -0.81291735844E+03  0.81291735844E+03  0.00000000000E+00 0.  1.
      -24    2    1    2    0    0  0.00000000000E+00  0.00000000000E+00 -0.81092460357E+03  0.81491011331E+03  0.80497081231E+02 0.  0.
       11    1    3    3    0    0 -0.86886013600E+00 -0.17757689894E+02 -0.39914523979E+02  0.43695076300E+02  0.00000000000E+00 0. -1.
      -12    1    3    3    0    0  0.86886013600E+00  0.17757689894E+02 -0.77101007959E+03  0.77121503701E+03  0.00000000000E+00 0.  1.
</event>
<event>
 4   3  0.6181100E+00  0.2215937E+03  0.7957747E-01  0.1139505E+00
       21   -1    0    0  501  502  0.00000000000E+00  0.00000000000E+00  0.28851214895E+03  0.28851214895E+03  0.00000000000E+00 0.  1.
       21   -1    0    0  502  503  0.00000000000E+00  0.00000000000E+00 -0.17892806702E+03  0.17892806702E+03  0.00000000000E+00 0.  1.
        6    1    1    2  501    0 -0.62472342359E+02  0.12357976819E+03  0.10642219198E+03  0.24582399316E+03  0.17300000000E+03 0.  1.
       -6    1    1    2    0  503  0.62472342359E+02 -0.12357976819E+03  0.31618899518E+01  0.22161622281E+03  0.17300000000E+03 0.  1.
</event>
<event>
 5   1  0.6181100E+00  0.8079410E+02  0.7957747E-01  0.1325444E+00
       -2   -1    0    0    0  501  0.00000000000E+00  0.00000000000E+00  0.17837028894E+02  0.17837028894E+02  0.00000000000E+00 0.  1.
        1   -1    0    0  501    0  0.00000000000E+00  0.00000000000E+00 -0.91490660108E+02  0.91490660108E+02  0.00000000000E+00 0. -1.
      -24    2    1    2    0    0  0.00000000000E+00  0.00000000000E+00 -0.73653631214E+02  0.10932768900E+03  0.80794097504E+02 0.  0.
       11    1    3    3    0    0 -0.63201696726E+01  0.17677398367E+02 -0.85229383538E+02  0.87272462873E+02  0.00000000000E+00 0. -1.
      -12    1    3    3    0    0  0.63201696726E+01 -0.17677398367E+02  0.11575752324E+02  0.22055226129E+02  0.00000000000E+00 0.  1.
</event>
<event>
 6   2  0.6181100E+00  0.8860254E+02  0.7957747E-01  0.1305958E+00
        1   -1    0    0  502    0  0.00000000000E+00  0.00000000000E+00  0.37914607412E+03  0.37914607412E+03  0.00000000000E+00 0. -1.
       21   -1    0    0  501  502  0.00000000000E+00  0.00000000000E+00 -0.11471634374E+02  0.11471634374E+02  0.00000000000E+00 0. -1.
      -24    2    1    2    0    0 -0.24812307122E+02  0.27556747415E+02  0.30680647965E+03  0.31934405643E+03  0.80469780083E+02 0.  0.
       11    1    3    3    0    0  0.83591782979E+01  0.48362375346E+02  0.18493311015E+03  0.19133491694E+03  0.00000000000E+00 0. -1.
      -12    1    3    3    0    0 -0.33171485420E+02 -0.20805627931E+02  0.12187336950E+03  0.12800913948E+03  0.00000000000E+00 0.  1.
        2    1    1    2  501    0  0.24812307122E+02 -0.27556747415E+02  0.60867960095E+02  0.71273652067E+02  0.00000000000E+00 0. -1.
</event>
<event>
 5   1  0.6181100E+00  0.1077955E+03  0.7957747E-01  0.1266390E+00
        1   -1    0    0  501    0  0.00000000000E+00  0.00000000000E+00  0.41310858136E+02  0.41310858136E+02  0.00000000000E+00 0. -1.
       -2   -1    0    0    0  501  0.00000000000E+00  0.00000000000E+00 -0.70319658089E+02  0.70319658089E+02  0.00000000000E+00 0.  1.
      -24    2    1    2    0    0  0.00000000000E+00  0.00000000000E+00 -0.29008799952E+02  0.11163051622E+03  0.10779546223E+03 0.  0.
       11    1    3    3    0    0 -0.42765032097E+02 -0.31056194003E+02 -0.35629865475E+01  0.52971973999E+02  0.00000000000E+00 0. -1.
      -12    1    3    3    0    0  0.42765032097E+02  0.31056194003E+02 -0.25445813405E+02  0.58658542226E+02  0.00000000000E+00 0.  1.
</event>
<event>
 5   1  0.6181100E+00  0.8021224E+02  0.7957747E-01  0.1326995E+00
        1   -1    0    0  501    0  0.00000000000E+00  0.00000000000E+00  0.47724763534E+01  0.47724763534E+01  0.00000000000E+00 0. -1.
       -2   -1    0    0    0  501  0.00000000000E+00  0.00000000000E+00 -0.33703694211E+03  0.33703694211E+03  0.00000000000E+00 0.  1.
      -24    2    1    2    0    0  0.00000000000E+00  0.00000000000E+00 -0.33226446576E+03  0.34180941847E+03  0.80212239377E+02 0.  0.
       11    1    3    3    0    0 -0.18875776030E+02  0.30141954727E+02 -0.87134753201E+02  0.94113216770E+02  0.00000000000E+00 0. -1.
      -12    1    3    3    0    0  0.18875776030E+02 -0.30141954727E+02 -0.24512971256E+03  0.24769620170E+03  0.00000000000E+00 0.  1.
</event>
<event>
 5   1  0.6181100E+00  0.8093744E+02  0.7957747E-01  0.1325064E+00
       -2   -1    0    0    0  501  0.00000000000E+00  0.00000000000E+00  0.40686217772E+01  0.40686217772E+01  0.00000000000E+00 0.  1.
        1   -1    0    0  501    0  0.00000000000E+00  0.00000000000E+00 -0.40252383465E+03  0.40252383465E+03  0.00000000000E+00 0. -1.
      -24    2    1    2    0    0  0.00000000000E+00  0.00000000000E+00 -0.39845521287E+03  0.40659245643E+03  0.80937438543E+02 0.  0.
       11    1    3    3    0    0 -0.39350340213E+02 -0.79146282075E+01 -0.22514957154E+03  0.22869941010E+03  0.00000000000E+00 0. -1.
      -12    1    3    3    0    0  0.39350340213E+02  0.79146282075E+01 -0.17330564134E+03  0.17789304633E+03  0.00000000000E+00 0.  1.
</event>
<event>
 6   2  0.6181100E+00  0.9563126E+02  0.7957747E-01  0.1290263E+00
       21   -1    0    0  501  502  0.00000000000E+00  0.00000000000E+00  0.26788399368E+02  0.26788399368E+02  0.00000000000E+00 0. -1.
        1   -1    0    0  502    0  0.00000000000E+00  0.00000000000E+00 -0.19529677261E+03  0.19529677261E+03  0.00000000000E+00 0. -1.
      -24    2    1    2    0    0 -0.39301559454E+02  0.27171750126E+02 -0.12562768968E+03  0.15788494143E+03  0.82839735238E+02 0.  0.
       11    1    3    3    0    0  0.74919752424E+01  0.32340045572E+02 -0.97609875738E+02  0.10310041747E+03  0.00000000000E+00 0. -1.
      -12    1    3    3    0    0 -0.46793534696E+02 -0.51682954462E+01 -0.28017813943E+02  0.54784523958E+02  0.00000000000E+00 0.  1.
        2    1    1    2  501    0  0.39301559454E+02 -0.27171750126E+02 -0.42880683565E+02  0.64200230555E+02  0.00000000000E+00 0. -1.
</event>
<event>
 4   3  0.6181100E+00  0.2660530E+03  0.7957747E-01  0.1111253E+00
       21   -1    0    0  501  502  0.00000000000E+00  0.00000000000E+00  0.24091496911E+03  0.24091496911E+03  0.00000000000E+00 0.  1.
       21   -1    0    0  502  503  0.00000000000E+00  0.00000000000E+00 -0.33067898568E+03  0.33067898568E+03  0.00000000000E+00 0. -1.
        6    1    1    2  501    0  0.18446619822E+03  0.82628106973E+02  0.50542860800E+02  0.27081130539E+03  0.17300000000E+03 0.  1.
       -6    1    1    2    0  503 -0.18446619822E+03 -0.82628106973E+02 -0.14030687737E+03  0.30078264941E+03  0.17300000000E+03 0. -1.
</event>
<event>
 6   2  0.6181100E+00  0.8390102E+02  0.7957747E-01  0.1317404E+00
       21   -1    0    0  501  502  0.00000000000E+00  0.00000000000E+00  0.61824326852E+02  0.61824326852E+02  0.00000000000E+00 0. -1.
        1   -1    0    0  502    0  0.00000000000E+00  0.00000000000E+00 -0.83561767402E+02  0.83561767402E+02  0.00000000000E+00 0. -1.
      -24    2    1    2    0    0  0.16575057710E+02 -0.20053978801E+02 -0.57097066737E+02  0.10148623357E+03  0.79765192728E+02 0.  0.
       11    1    3    3    0    0  0.25785581017E+02 -0.11895763369E+02 -0.74753492620E+02  0.79965555293E+02  0.00000000000E+00 0. -1.
      -12    1    3    3    0    0 -0.92105233079E+01 -0.81582154325E+01  0.17656425883E+02  0.21520678279E+02  0.00000000000E+00 0.  1.
        2    1    1    2  501    0 -0.16575057710E+02  0.20053978801E+02  0.35359626187E+02  0.43899860682E+02  0.00000000000E+00 0. -1.
</event>
<event>
 6   2  0.6181100E+00  0.9705439E+02  0.7957747E-01  0.1287269E+00
       21   -1    0    0  501  502  0.00000000000E+00  0.00000000000E+00  0.60751656111E+02  0.60751656111E+02  0.00000000000E+00 0. -1.
        1   -1    0    0  502    0  0.00000000000E+00  0.00000000000E+00 -0.17132429571E+03  0.17132429571E+03  0.00000000000E+00 0. -1.
      -24    2    1    2    0    0  0.11272488653E+02 -0.53503657664E+02 -0.13971442892E+03  0.17011665656E+03  0.80186313085E+02 0.  0.
       11    1    3    3    0    0  0.35981596690E+02 -0.28832667436E+02 -0.30071462986E+02  0.55048078059E+02  0.00000000000E+00 0. -1.
      -12    1    3    3    0    0 -0.24709108037E+02 -0.24670990228E+02 -0.10964296594E+03  0.11506857850E+03  0.00000000000E+00 0.  1.
        2    1    1    2  501    0 -0.11272488653E+02  0.53503657664E+02  0.29141789326E+02  0.61959295259E+02  0.00000000000E+00 0. -1.
</event>
<event>
 4   3  0.6181100E+00  0.1730442E+03  0.7957747E-01  0.1180082E+00
       21   -1    0    0  501  502  0.00000000000E+00  0.00000000000E+00  0.19239727847E+03  0.19239727847E+03  0.00000000000E+00 0. -1.
       21   -1    0    0  502  503  0.00000000000E+00  0.00000000000E+00 -0.16524929095E+03  0.16524929095E+03  0.00000000000E+00 0. -1.
        6    1    1    2  501    0 -0.17310984693E+01  0.35045682162E+01  0.56701155035E+02  0.18209695133E+03  0.17300000000E+03 0. -1.
       -6    1    1    2    0  503  0.17310984693E+01 -0.35045682162E+01 -0.29553167516E+02  0.17554961809E+03  0.17300000000E+03 0. -1.
</event>
<event>
 4   1  0.6181100E+00  0.4291269E+02  0.7957747E-01  0.1476541E+00
        3   -1    0    0  501    0  0.00000000000E+00  0.00000000000E+00  0.20330946068E+02  0.20330946068E+02  0.00000000000E+00 0. -1.
       -4   -1    0    0    0  501  0.00000000000E+00  0.00000000000E+00 -0.22644034894E+02  0.22644034894E+02  0.00000000000E+00 0.  1.
       11    1    1    2    0    0 -0.10544199374E+02  0.96020655694E+01  0.14897786277E+02  0.20623380896E+02  0.00000000000E+00 0. -1.
      -12    1    1    2    0    0  0.10544199374E+02 -0.96020655694E+01 -0.17210875104E+02  0.22351600065E+02  0.00000000000E+00 0.  1.
</event>
<event>
 6   2  0.6181100E+00  0.8437878E+02  0.7957747E-01  0.1316203E+00
       21   -1    0    0  501  502  0.00000000000E+00  0.00000000000E+00  0.13347562406E+03  0.13347562406E+03  0.00000000000E+00 0. -1.
        1   -1    0    0  502    0  0.00000000000E+00  0.00000000000E+00 -0.10211028193E+03  0.10211028193E+03  0.00000000000E+00 0. -1.
      -24    2    1    2    0    0 -0.28693876847E+02  0.17110445581E+02 -0.81843480545E+02  0.11755055769E+03  0.77483368463E+02 0.  0.
       11    1    3    3    0    0 -0.34627559796E+02  0.37464184813E+02 -0.81734608951E+02  0.96349257088E+02  0.00000000000E+00 0. -1.
      -12    1    3    3    0    0  0.59336829492E+01 -0.20353739232E+02 -0.10887159416E+00  0.21201300599E+02  0.00000000000E+00 0.  1.
        2    1    1    2  501    0  0.28693876847E+02 -0.17110445581E+02  0.11320882267E+03  0.11803534830E+03  0.00000000000E+00 0. -1.
</event>
<event>
 5   1  0.6181100E+00  0.7959826E+02  0.7957747E-01  0.1328648E+00
        1   -1    0    0  501    0  0.00000000000E+00  0.00000000000E+00  0.54104628751E+01  0.54104628751E+01  0.00000000000E+00 0. -1.
       -2   -1    0    0    0  501  0.00000000000E+00  0.00000000000E+00 -0.29276070232E+03  0.29276070232E+03  0.00000000000E+00 0.  1.
      -24    2    1    2    0    0  0.00000000000E+00  0.00000000000E+00 -0.28735023944E+03  0.29817116519E+03  0.79598264081E+02 0.  0.
       11    1    3    3    0    0 -0.43349480402E+01  0.19224997237E+02 -0.14150860953E+02  0.24261886963E+02  0.00000000000E+00 0. -1.
      -12    1    3    3    0    0  0.43349480402E+01 -0.19224997237E+02 -0.27319937849E+03  0.27390927823E+03  0.00000000000E+00 0.  1.
</event>
<event>
 6   2  0.6181100E+00  0.9981985E+02  0.7957747E-01  0.1281613E+00
        3   -1    0    0  502    0  0.00000000000E+00  0.00000000000E+00  0.24529682748E+03  0.24529682748E+03  0.00000000000E+00 0. -1.
       -4   -1    0    0    0  501  0.00000000000E+00  0.00000000000E+00 -0.26128918460E+02  0.26128918460E+02  0.00000000000E+00 0.  1.
      -24    2    1    2    0    0 -0.58891223376E+02 -0.12891866831E+02  0.13818607671E+03  0.17046816284E+03  0.79558948740E+02 0.  0.
       11    1    3    3    0    0 -0.17965410778E+02  0.32704074221E+02  0.39731267677E+02  0.54505835342E+02  0.00000000000E+00 0. -1.
      -12    1    3    3    0    0 -0.40925812598E+02 -0.45595941052E+02  0.98454809031E+02  0.11596232750E+03  0.00000000000E+00 0.  1.
       21    1    1    2  502  501  0.58891223376E+02  0.12891866831E+02  0.80981832313E+02  0.10095758310E+03  0.00000000000E+00 0. -1.
</event>
<event>
 5   1  0.6181100E+00  0.7962494E+02  0.7957747E-01  0.1328576E+00
        1   -1    0    0  501    0  0.00000000000E+00  0.00000000000E+00  0.32459567044E+01  0.32459567044E+01  0.00000000000E+00 0. -1.
       -2   -1    0    0    0  501  0.00000000000E+00  0.00000000000E+00 -0.48830991922E+03  0.48830991922E+03  0.00000000000E+00 0.  1.
      -24    2    1    2    0    0  0.00000000000E+00  0.00000000000E+00 -0.48506396252E+03  0.49155587593E+03  0.79624942227E+02 0.  0.
       11    1    3    3    0    0  0.12585666185E+02  0.29048313585E+02 -0.93494855959E+02  0.98709126257E+02  0.00000000000E+00 0. -1.
      -12    1    3    3    0    0 -0.12585666185E+02 -0.29048313585E+02 -0.39156910656E+03  0.39284674967E+03  0.00000000000E+00 0.  1.
</event>
<event>
 5   1  0.6181100E+00  0.8231407E+02  0.7957747E-01  0.1321461E+00
        3   -1    0    0  501    0  0.00000000000E+00  0.00000000000E+00  0.77592598809E+01  0.77592598809E+01  0.00000000000E+00 0. -1.
       -4   -1    0    0    0  501  0.00000000000E+00  0.00000000000E+00 -0.21830708037E+03  0.21830708037E+03  0.00000000000E+00 0.  1.
      -24    2    1    2    0    0  0.00000000000E+00  0.00000000000E+00 -0.21054782049E+03  0.22606634025E+03  0.82314066123E+02 0.  0.
       11    1    3    3    0    0  0.17280850449E+02  0.35969293322E+02 -0.13294075297E+03  0.13880079846E+03  0.00000000000E+00 0. -1.
      -12    1    3    3    0    0 -0.17280850449E+02 -0.35969293322E+02 -0.77607067522E+02  0.87265541789E+02  0.00000000000E+00 0.  1.
</event>
<event>
 5   1  0.6181100E+00  0.8055241E+02  0.7957747E-01  0.1326087E+00
        1   -1    0    0  501    0  0.00000000000E+00  0.00000000000E+00  0.37545377278E+01  0.37545377278E+01  0.00000000000E+00 0. -1.
       -2   -1    0    0    0  501  0.00000000000E+00  0.00000000000E+00 -0.43205654023E+03  0.43205654023E+03  0.00000000000E+00 0.  1.
      -24    2    1    2    0    0  0.00000000000E+00  0.00000000000E+00 -0.42830200251E+03  0.43581107796E+03  0.80552407309E+02 0.  0.
       11    1    3    3    0    0 -0.54617451293E+01  0.27017847762E+02 -0.55271257209E+02  0.61763311367E+02  0.00000000000E+00 0. -1.
      -12    1    3    3    0    0  0.54617451293E+01 -0.27017847762E+02 -0.37303074530E+03  0.37404776660E+03  0.00000000000E+00 0.  1.
</event>
<event>
 6   2  0.6181100E+00  0.1079495E+03  0.7957747E-01  0.1266111E+00
        3   -1    0    0  502    0  0.00000000000E+00  0.00000000000E+00  0.10562953003E+03  0.10562953003E+03  0.00000000000E+00 0. -1.
       -4   -1    0    0    0  501  0.00000000000E+00  0.00000000000E+00 -0.45934666849E+03  0.45934666849E+03  0.00000000000E+00 0.  1.
      -24    2    1    2    0    0 -0.20152367396E+02 -0.70782440000E+02  0.74061572915E+02  0.13091295702E+03  0.78973501942E+02 0.  0.
       11    1    3    3    0    0 -0.32771085016E+02 -0.75925272255E+02  0.80882712415E+02  0.11567456137E+03  0.00000000000E+00 0. -1.
      -12    1    3    3    0    0  0.12618717620E+02  0.51428322544E+01 -0.68211395000E+01  0.15238395652E+02  0.00000000000E+00 0.  1.
       21    1    1    2  502  501  0.20152367396E+02  0.70782440000E+02 -0.42777871137E+03  0.43406324151E+03  0.00000000000E+00 0.  1.
</event>
<event>
 5   1  0.6181100E+00  0.8182691E+02  0.7957747E-01  0.1322727E+00
        1   -1    0    0  501    0  0.00000000000E+00  0.00000000000E+00  0.28153253485E+02  0.28153253485E+02  0.00000000000E+00 0. -1.
       -2   -1    0    0    0  501  0.00000000000E+00  0.00000000000E+00 -0.59457105190E+02  0.59457105190E+02  0.00000000000E+00 0.  1.
      -24    2    1    2    0    0  0.00000000000E+00  0.00000000000E+00 -0.31303851705E+02  0.87610358675E+02  0.81826913760E+02 0.  0.
       11    1    3    3    0    0  0.35238064058E+02 -0.15612220777E+01 -0.37847604721E+02  0.51735865278E+02  0.00000000000E+00 0. -1.
      -12    1    3    3    0    0 -0.35238064058E+02  0.15612220777E+01  0.65437530162E+01  0.35874493397E+02  0.00000000000E+00 0.  1.
</event>
<event>
 5   1  0.6181100E+00  0.8222993E+02  0.7957747E-01  0.1321679E+00
       -4   -1    0    0    0  501  0.00000000000E+00  0.00000000000E+00  0.12814090895E+03  0.12814090895E+03  0.00000000000E+00 0.  1.
        3   -1    0    0  501    0  0.00000000000E+00  0.00000000000E+00 -0.13192044180E+02  0.13192044180E+02  0.00000000000E+00 0. -1.
      -24    2    1    2    0    0  0.00000000000E+00  0.00000000000E+00  0.11494886477E+03  0.14133295313E+03  0.82229934503E+02 0.  0.
       11    1    3    3    0    0  0.25705797652E+02  0.43616408888E+01  0.28346100204E+01  0.26226836602E+02  0.00000000000E+00 0. -1.
      -12    1    3    3    0    0 -0.25705797652E+02 -0.43616408888E+01  0.11211425475E+03  0.11510611653E+03  0.00000000000E+00 0.  1.
</event>
<event>
 5   1  0.6181100E+00  0.7928924E+02  0.7957747E-01  0.1329487E+00
       -2   -1    0    0    0  501  0.00000000000E+00  0.00000000000E+00  0.10995799136E+02  0.10995799136E+02  0.00000000000E+00 0.  1.
        1   -1    0    0  501    0  0.00000000000E+00  0.00000000000E+00 -0.14293601691E+03  0.14293601691E+03  0.00000000000E+00 0. -1.
      -24    2    1    2    0    0  0.00000000000E+00  0.00000000000E+00 -0.13194021778E+03  0.15393181605E+03  0.79289235870E+02 0.  0.
       11    1    3    3    0    0  0.30257709841E+02  0.21250207008E+02 -0.93739229285E+02  0.10076776970E+03  0.00000000000E+00 0. -1.
      -12    1    3    3    0    0 -0.30257709841E+02 -0.21250207008E+02 -0.38200988492E+02  0.53164046352E+02  0.00000000000E+00 0.  1.
</event>
<event>
 5   1  0.6181100E+00  0.8173514E+02  0.7957747E-01  0.1322966E+00
        3   -1    0    0  501    0  0.00000000000E+00  0.00000000000E+00  0.90583368827E+02  0.90583368827E+02  0.00000000000E+00 0. -1.
       -4   -1    0    0    0  501  0.00000000000E+00  0.00000000000E+00 -0.18437802965E+02  0.18437802965E+02  0.00000000000E+00 0.  1.
      -24    2    1    2    0    0  0.00000000000E+00  0.00000000000E+00  0.72145565862E+02  0.10902117179E+03  0.81735140701E+02 0.  0.
       11    1    3    3    0    0  0.57543137232E+01  0.38707211025E+02  0.51787031797E+02  0.64909606178E+02  0.00000000000E+00 0. -1.
      -12    1    3    3    0    0 -0.57543137232E+01 -0.38707211025E+02  0.20358534065E+02  0.44111565615E+02  0.00000000000E+00 0.  1.
</event>
<event>
 6   2  0.6181100E+00  0.8415517E+02  0.7957747E-01  0.1316764E+00
       -4   -1    0    0    0  501  0.00000000000E+00  0.00000000000E+00  0.11128035084E+03  0.11128035084E+03  0.00000000000E+00 0.  1.
       21   -1    0    0  501  502  0.00000000000E+00  0.00000000000E+00 -0.57668331082E+02  0.57668331082E+02  0.00000000000E+00 0. -1.
      -24    2    1    2    0    0  0.10353969980E+02 -0.22571569356E+02  0.91074699547E+02  0.12400279429E+03  0.80407783564E+02 0.  0.
       11    1    3    3    0    0  0.24967664843E+02 -0.46037313556E+02  0.76617164922E+02  0.92806295518E+02  0.00000000000E+00 0. -1.
      -12    1    3    3    0    0 -0.14613694864E+02  0.23465744200E+02  0.14457534625E+02  0.31196498776E+02  0.00000000000E+00 0.  1.
       -3    1    1    2    0  502 -0.10353969980E+02  0.22571569356E+02 -0.37462679790E+02  0.44945887627E+02  0.00000000000E+00 0.  1.
</event>
<event>
 5   1  0.6181100E+00  0.8095149E+02  0.7957747E-01  0.1325027E+00
       -2   -1    0    0    0  501  0.00000000000E+00  0.00000000000E+00  0.30021729211E+02  0.30021729211E+02  0.00000000000E+00 0.  1.
        1   -1    0    0  501    0  0.00000000000E+00  0.00000000000E+00 -0.54570000032E+02  0.54570000032E+02  0.00000000000E+00 0. -1.
      -24    2    1    2    0    0  0.00000000000E+00  0.00000000000E+00 -0.24548270821E+02  0.84591729243E+02  0.80951485818E+02 0.  0.
       11    1    3    3    0    0 -0.23000431923E+02 -0.27719283070E+02 -0.31568087327E+02  0.47894912674E+02  0.00000000000E+00 0. -1.
      -12    1    3    3    0    0  0.23000431923E+02  0.27719283070E+02  0.70198165064E+01  0.36696816570E+02  0.00000000000E+00 0.  1.
</event>
<event>
 5   1  0.6181100E+00  0.8026877E+02  0.7957747E-01  0.1326844E+00
       -2   -1    0    0    0  501  0.00000000000E+00  0.00000000000E+00  0.23763171446E+02  0.23763171446E+02  0.00000000000E+00 0.  1.
        1   -1    0    0  501    0  0.00000000000E+00  0.00000000000E+00 -0.67784257788E+02  0.67784257788E+02  0.00000000000E+00 0. -1.
      -24    2    1    2    0    0  0.00000000000E+00  0.00000000000E+00 -0.44021086342E+02  0.91547429234E+02  0.80268771989E+02 0.  0.
       11    1    3    3    0    0 -0.37549583659E+02  0.12886366697E+02 -0.15288368194E+02  0.42541319698E+02  0.00000000000E+00 0. -1.
      -12    1    3    3    0    0  0.37549583659E+02 -0.12886366697E+02 -0.28732718149E+02  0.49006109536E+02  0.00000000000E+00 0.  1.
</event>
<event>
 4   3  0.6181100E+00  0.2358133E+03  0.7957747E-01  0.1129736E+00
       21   -1    0    0  501  502  0.00000000000E+00  0.00000000000E+00  0.22236390286E+03  0.22236390286E+03  0.00000000000E+00 0.  1.
       21   -1    0    0  502  503  0.00000000000E+00  0.00000000000E+00 -0.29200364203E+03  0.29200364203E+03  0.00000000000E+00 0. -1.
        6    1    1    2  501    0 -0.14420066002E+03  0.69893354489E+02  0.62633937479E+02  0.24398959297E+03  0.17300000000E+03 0.  1.
       -6    1    1    2    0  503  0.14420066002E+03 -0.69893354489E+02 -0.13227367666E+03  0.27037795193E+03  0.17300000000E+03 0. -1.
</event>
<event>
 5   1  0.6181100E+00  0.7989731E+02  0.7957747E-01  0.1327841E+00
       -4   -1    0    0    0  501  0.00000000000E+00  0.00000000000E+00  0.18580905332E+02  0.18580905332E+02  0.00000000000E+00 0.  1.
        3   -1    0    0  501    0  0.00000000000E+00  0.00000000000E+00 -0.85888992121E+02  0.85888992121E+02  0.00000000000E+00 0. -1.
      -24    2    1    2    0    0  0.00000000000E+00  0.00000000000E+00 -0.67308086789E+02  0.10446989745E+03  0.79897314890E+02 0.  0.
       11    1    3    3    0    0  0.99657291679E+01  0.35926289088E+02 -0.52415534734E+02  0.64322642102E+02  0.00000000000E+00 0. -1.
      -12    1    3    3    0    0 -0.99657291679E+01 -0.35926289088E+02 -0.14892552055E+02  0.40147255351E+02  0.00000000000E+00 0.  1.
</event>
<event>
 5   1  0.6181100E+00  0.8204031E+02  0.7957747E-01  0.1322171E+00
       -2   -1    0    0    0  501  0.00000000000E+00  0.00000000000E+00  0.16508956285E+02  0.16508956285E+02  0.00000000000E+00 0.  1.
        1   -1    0    0  501    0  0.00000000000E+00  0.00000000000E+00 -0.10192364243E+03  0.10192364243E+03  0.00000000000E+00 0. -1.
      -24    2    1    2    0    0  0.00000000000E+00  0.00000000000E+00 -0.85414686141E+02  0.11843259871E+03  0.82040306124E+02 0.  0.
       11    1    3    3    0    0  0.99155976461E+01  0.34908379993E+02 -0.70315000417E+02  0.79127197309E+02  0.00000000000E+00 0. -1.
      -12    1    3    3    0    0 -0.99155976461E+01 -0.34908379993E+02 -0.15099685725E+02  0.39305401402E+02  0.00000000000E+00 0.  1.
</event>
<event>
 5   1  0.6181100E+00  0.8298255E+02  0.7957747E-01  0.1319740E+00
        1   -1    0    0  501    0  0.00000000000E+00  0.00000000000E+00  0.37792395761E+02  0.37792395761E+02  0.00000000000E+00 0. -1.
       -2   -1    0    0    0  501  0.00000000000E+00  0.00000000000E+00 -0.45552172119E+02  0.45552172119E+02  0.00000000000E+00 0.  1.
      -24    2    1    2    0    0  0.00000000000E+00  0.00000000000E+00 -0.77597763580E+01  0.83344567880E+02  0.82982545550E+02 0.  0.
       11    1    3    3    0    0  0.32182291817E+02 -0.14990698082E+02  0.17687142634E+02  0.39664290617E+02  0.00000000000E+00 0. -1.
      -12    1    3    3    0    0 -0.32182291817E+02  0.14990698082E+02 -0.25446918992E+02  0.43680277263E+02  0.00000000000E+00 0.  1.
</event>
<event>
 5   1  0.6181100E+00  0.7885725E+02  0.7957747E-01  0.1330666E+00
        1   -1    0    0  501    0  0.00000000000E+00  0.00000000000E+00  0.51435335005E+02  0.51435335005E+02  0.00000000000E+00 0. -1.
       -2   -1    0    0    0  501  0.00000000000E+00  0.00000000000E+00 -0.30224680848E+02  0.30224680848E+02  0.00000000000E+00 0.  1.
      -24    2    1    2    0    0  0.00000000000E+00  0.00000000000E+00  0.21210654157E+02  0.81660015853E+02  0.78857252928E+02 0.  0.
       11    1    3    3    0    0 -0.15659101049E+02  0.34378852425E+02  0.22298412338E+02  0.43867210220E+02  0.00000000000E+00 0. -1.
      -12    1    3    3    0    0  0.15659101049E+02 -0.34378852425E+02 -0.10877581818E+01  0.37792805632E+02  0.00000000000E+00 0.  1.
</event>
<event>
 5   1  0.6181100E+00  0.8053133E+02  0.7957747E-01  0.1326143E+00
       -4   -1    0    0    0  501  0.00000000000E+00  0.00000000000E+00  0.26901519410E+02  0.26901519410E+02  0.00000000000E+00 0.  1.
        3   -1    0    0  501    0  0.00000000000E+00  0.00000000000E+00 -0.60268860877E+02  0.60268860877E+02  0.00000000000E+00 0. -1.
      -24    2    1    2    0    0  0.00000000000E+00  0.00000000000E+00 -0.33367341467E+02  0.87170380287E+02  0.80531333795E+02 0.  0.
       11    1    3    3    0    0  0.82188897351E+01  0.27229160753E+02 -0.47535060218E+02  0.55394578198E+02  0.00000000000E+00 0. -1.
      -12    1    3    3    0    0 -0.82188897351E+01 -0.27229160753E+02  0.14167718751E+02  0.31775802089E+02  0.00000000000E+00 0.  1.
</event>
<event>
 5   1  0.6181100E+00  0.8148531E+02  0.7957747E-01  0.1323620E+00
        3   -1    0    0  501    0  0.00000000000E+00  0.00000000000E+00  0.30994507398E+03  0.30994507398E+03  0.00000000000E+00 0. -1.
       -4   -1    0    0    0  501  0.00000000000E+00  0.00000000000E+00 -0.53556707896E+01  0.53556707896E+01  0.00000000000E+00 0.  1.
      -24    2    1    2    0    0  0.00000000000E+00  0.00000000000E+00  0.30458940319E+03  0.31530074477E+03  0.81485306137E+02 0.  0.
       11    1    3    3    0    0  0.28713327622E+02  0.28194023409E+02  0.12763777883E+03  0.13383109027E+03  0.00000000000E+00 0. -1.
      -12    1    3    3    0    0 -0.28713327622E+02 -0.28194023409E+02  0.17695162436E+03  0.18146965449E+03  0.00000000000E+00 0.  1.
</event>
<event>
 5   1  0.6181100E+00  0.6871719E+02  0.7957747E-01  0.1361084E+00
       -4   -1    0    0    0  501  0.00000000000E+00  0.00000000000E+00  0.24107483957E+02  0.24107483957E+02  0.00000000000E+00 0.  1.
        3   -1    0    0  501    0  0.00000000000E+00  0.00000000000E+00 -0.48968738507E+02  0.48968738507E+02  0.00000000000E+00 0. -1.
      -24    2    1    2    0    0  0.00000000000E+00  0.00000000000E+00 -0.24861254550E+02  0.73076222464E+02  0.68717190802E+02 0.  0.
       11    1    3    3    0    0 -0.91595785506E+01  0.32891630881E+02 -0.16515629693E+02  0.37927869508E+02  0.00000000000E+00 0. -1.
      -12    1    3    3    0    0  0.91595785506E+01 -0.32891630881E+02 -0.83456248572E+01  0.35148352956E+02  0.00000000000E+00 0.  1.
</event>
<event>
 5   1  0.6181100E+00  0.8313609E+02  0.7957747E-01  0.1319347E+00
        1   -1    0    0  501    0  0.00000000000E+00  0.00000000000E+00  0.96645225429E+02  0.96645225429E+02  0.00000000000E+00 0. -1.
       -2   -1    0    0    0  501  0.00000000000E+00  0.00000000000E+00 -0.17878817793E+02  0.17878817793E+02  0.00000000000E+00 0.  1.
      -24    2    1    2    0    0  0.00000000000E+00  0.00000000000E+00  0.78766407636E+02  0.11452404322E+03  0.83136090262E+02 0.  0.
       11    1    3    3    0    0  0.14507202815E+02  0.30187417206E+02  0.73298990068E+02  0.80588343053E+02  0.00000000000E+00 0. -1.
      -12    1    3    3    0    0 -0.14507202815E+02 -0.30187417206E+02  0.54674175685E+01  0.33935700169E+02  0.00000000000E+00 0.  1.
</event>
<event>
 6   2  0.6181100E+00  0.8624478E+02  0.7957747E-01  0.1311595E+00
        1   -1    0    0  502    0  0.00000000000E+00  0.00000000000E+00  0.12830457979E+03  0.12830457979E+03  0.00000000000E+00 0. -1.
       -2   -1    0    0    0  501  0.00000000000E+00  0.00000000000E+00 -0.49351642408E+02  0.49351642408E+02  0.00000000000E+00 0.  1.
      -24    2    1    2    0    0 -0.26272207912E+02  0.16199316187E+02 -0.68052530154E+01  0.86512851766E+02  0.80532697077E+02 0.  0.
       11    1    3    3    0    0  0.12389055451E+02 -0.20435416281E+02  0.15804512807E+02  0.28650960867E+02  0.00000000000E+00 0. -1.
      -12    1    3    3    0    0 -0.38661263363E+02  0.36634732468E+02 -0.22609765822E+02  0.57861890899E+02  0.00000000000E+00 0.  1.
       21    1    1    2  502  501  0.26272207912E+02 -0.16199316187E+02  0.85758190400E+02  0.91143370435E+02  0.00000000000E+00 0. -1.
</event>
<event>
 5   1  0.6181100E+00  0.8007134E+02  0.7957747E-01  0.1327373E+00
       -2   -1    0    0    0  501  0.00000000000E+00  0.00000000000E+00  0.11340833402E+02  0.11340833402E+02  0.00000000000E+00 0.  1.
        1   -1    0    0  501    0  0.00000000000E+00  0.00000000000E+00 -0.14133484422E+03  0.14133484422E+03  0.00000000000E+00 0. -1.
      -24    2    1    2    0    0  0.00000000000E+00  0.00000000000E+00 -0.12999401082E+03  0.15267567762E+03  0.80071341245E+02 0.  0.
       11    1    3    3    0    0  0.22002337483E+01  0.24772558320E+02 -0.12481943550E+03  0.12727298280E+03  0.00000000000E+00 0. -1.
      -12    1    3    3    0    0 -0.22002337483E+01 -0.24772558320E+02 -0.51745753213E+01  0.25402694818E+02  0.00000000000E+00 0.  1.
</event>
<event>
 6   2  0.6181100E+00  0.1036420E+03  0.7957747E-01  0.1274126E+00
        1   -1    0    0  502    0  0.00000000000E+00  0.00000000000E+00  0.41640872504E+03  0.41640872504E+03  0.00000000000E+00 0. -1.
       -2   -1    0    0    0  501  0.00000000000E+00  0.00000000000E+00 -0.17503305443E+02  0.17503305443E+02  0.00000000000E+00 0.  1.
      -24    2    1    2    0    0  0.65483836548E+02  0.14223726877E+02  0.24921148874E+03  0.26990373742E+03  0.79064619792E+02 0.  0.
       11    1    3    3    0    0  0.43383485642E+02  0.45385623815E+01  0.24022824875E+03  0.24415637791E+03  0.00000000000E+00 0. -1.
      -12    1    3    3    0    0  0.22100350906E+02  0.96851644957E+01  0.89832399836E+01  0.25747359517E+02  0.00000000000E+00 0.  1.
       21    1    1    2  502  501 -0.65483836548E+02 -0.14223726877E+02  0.14969393086E+03  0.16400829306E+03  0.00000000000E+00 0. -1.
</event>
<event>
 5   1  0.6181100E+00  0.8009016E+02  0.7957747E-01  0.1327323E+00
       -4   -1    0    0    0  501  0.00000000000E+00  0.00000000000E+00  0.11371970354E+02  0.11371970354E+02  0.00000000000E+00 0.  1.
        3   -1    0    0  501    0  0.00000000000E+00  0.00000000000E+00 -0.14101411029E+03  0.14101411029E+03  0.00000000000E+00 0. -1.
      -24    2    1    2    0    0  0.00000000000E+00  0.00000000000E+00 -0.12964213994E+03  0.15238608065E+03  0.80090156242E+02 0.  0.
       11    1    3    3    0    0 -0.21347656905E+02 -0.21353475202E+02 -0.11486973606E+03  0.11877183851E+03  0.00000000000E+00 0. -1.
      -12    1    3    3    0    0  0.21347656905E+02  0.21353475202E+02 -0.14772403876E+02  0.33614242142E+02  0.00000000000E+00 0.  1.
</event>
<event>
 5   1  0.6181100E+00  0.8342480E+02  0.7957747E-01  0.1318611E+00
       -2   -1    0    0    0  501  0.00000000000E+00  0.00000000000E+00  0.11065480323E+02  0.11065480323E+02  0.00000000000E+00 0.  1.
        1   -1    0    0  501    0  0.00000000000E+00  0.00000000000E+00 -0.15723892109E+03  0.15723892109E+03  0.00000000000E+00 0. -1.
      -24    2    1    2    0    0  0.00000000000E+00  0.00000000000E+00 -0.14617344076E+03  0.16830440141E+03  0.83424796969E+02 0.  0.
       11    1    3    3    0    0  0.37668454800E+02 -0.12267104110E+02 -0.99431861495E+02  0.10703312296E+03  0.00000000000E+00 0. -1.
      -12    1    3    3    0    0 -0.37668454800E+02  0.12267104110E+02 -0.46741579268E+02  0.61271278449E+02  0.00000000000E+00 0.  1.
</event>
<event>
 5   1  0.6181100E+00  0.8191867E+02  0.7957747E-01  0.1322488E+00
       -2   -1    0    0    0  501  0.00000000000E+00  0.00000000000E+00  0.25207480083E+02  0.25207480083E+02  0.00000000000E+00 0.  1.
        1   -1    0    0  501    0  0.00000000000E+00  0.00000000000E+00 -0.66554340238E+02  0.66554340238E+02  0.00000000000E+00 0. -1.
      -24    2    1    2    0    0  0.00000000000E+00  0.00000000000E+00 -0.41346860154E+02  0.91761820321E+02  0.81918672011E+02 0.  0.
       11    1    3    3    0    0  0.17142002831E+02  0.78428051148E+01 -0.61406360169E+02  0.64234717423E+02  0.00000000000E+00 0. -1.
      -12    1    3    3    0    0 -0.17142002831E+02 -0.78428051148E+01  0.20059500015E+02  0.27527102898E+02  0.00000000000E+00 0.  1.
</event>
<event>
 5   1  0.6181100E+00  0.8162253E+02  0.7957747E-01  0.1323261E+00
        3   -1    0    0  501    0  0.00000000000E+00  0.00000000000E+00  0.47372254457E+02  0.47372254457E+02  0.00000000000E+00 0. -1.
       -4   -1    0    0    0  501  0.00000000000E+00  0.00000000000E+00 -0.35158965468E+02  0.35158965468E+02  0.00000000000E+00 0.  1.
      -24    2    1    2    0    0  0.00000000000E+00  0.00000000000E+00  0.12213288989E+02  0.82531219924E+02  0.81622532638E+02 0.  0.
       11    1    3    3    0    0 -0.23136174342E+02  0.21810509743E-01  0.40100508451E+02  0.46296153371E+02  0.00000000000E+00 0. -1.
      -12    1    3    3    0    0  0.23136174342E+02 -0.21810509743E-01 -0.27887219462E+02  0.36235066554E+02  0.00000000000E+00 0.  1.
</event>
<event>
 6   2  0.6181100E+00  0.9280595E+02  0.7957747E-01  0.1296383E+00
       -2   -1    0    0    0  501  0.00000000000E+00  0.00000000000E+00  0.27557665953E+02  0.27557665953E+02  0.00000000000E+00 0.  1.
       21   -1    0    0  501  502  0.00000000000E+00  0.00000000000E+00 -0.13867565855E+03  0.13867565855E+03  0.00000000000E+00 0.  1.
      -24    2    1    2    0    0 -0.10550565611E+02 -0.26132799751E+02 -0.69385396555E+02  0.11587612810E+03  0.88423447964E+02 0.  0.
       11    1    3    3    0    0 -0.37113712761E+02  0.11981243302E+02 -0.96027748993E+01  0.40164550934E+02  0.00000000000E+00 0. -1.
      -12    1    3    3    0    0  0.26563147150E+02 -0.38114043053E+02 -0.59782621656E+02  0.75711577162E+02  0.00000000000E+00 0.  1.
       -1    1    1    2    0  502  0.10550565611E+02  0.26132799751E+02 -0.41732596041E+02  0.50357196406E+02  0.00000000000E+00 0.  1.
</event>
<event>
 5   1  0.6181100E+00  0.7916682E+02  0.7957747E-01  0.1329820E+00
        1   -1    0    0  501    0  0.00000000000E+00  0.00000000000E+00  0.38964911768E+02  0.38964911768E+02  0.00000000000E+00 0. -1.
       -2   -1    0    0    0  501  0.00000000000E+00  0.00000000000E+00 -0.40211721134E+02  0.40211721134E+02  0.00000000000E+00 0.  1.
      -24    2    1    2    0    0  0.00000000000E+00  0.00000000000E+00 -0.12468093655E+01  0.79176632902E+02  0.79166815423E+02 0.  0.
       11    1    3    3    0    0 -0.27826914316E+02  0.28148785479E+02 -0.10170036963E+01  0.39594514529E+02  0.00000000000E+00 0. -1.
      -12    1    3    3    0    0  0.27826914316E+02 -0.28148785479E+02 -0.22980566924E+00  0.39582118373E+02  0.00000000000E+00 0.  1.
</event>
<event>
 6   2  0.6181100E+00  0.8328418E+02  0.7957747E-01  0.1318969E+00
       -2   -1    0    0    0  501  0.00000000000E+00  0.00000000000E+00  0.40918317112E+03  0.40918317112E+03  0.00000000000E+00 0.  1.
       21   -1    0    0  501  502  0.00000000000E+00  0.00000000000E+00 -0.68414699491E+01  0.68414699491E+01  0.00000000000E+00 0. -1.
      -24    2    1    2    0    0  0.16418208820E+02 -0.13718632680E+02  0.29286511398E+03  0.30447697589E+03  0.80489101116E+02 0.  0.
       11    1    3    3    0    0  0.22313541697E+02  0.54238643639E+01  0.18790553720E+02  0.29671490640E+02  0.00000000000E+00 0. -1.
      -12    1    3    3    0    0 -0.58953328774E+01 -0.19142497044E+02  0.27407456026E+03  0.27480548525E+03  0.00000000000E+00 0.  1.
       -1    1    1    2    0  502 -0.16418208820E+02  0.13718632680E+02  0.10947658719E+03  0.11154766518E+03  0.00000000000E+00 0.  1.
</event>
<event>
 6   2  0.6181100E+00  0.8109644E+02  0.7957747E-01  0.1324644E+00
       21   -1    0    0  501  502  0.00000000000E+00  0.00000000000E+00  0.11086377318E+03  0.11086377318E+03  0.00000000000E+00 0.  1.
        3   -1    0    0  502    0  0.00000000000E+00  0.00000000000E+00 -0.28896762155E+02  0.28896762155E+02  0.00000000000E+00 0. -1.
      -24    2    1    2    0    0 -0.57578016856E+01 -0.19252090045E+02  0.34339053561E+02  0.88067038804E+02  0.78567407192E+02 0.  0.
       11    1    3    3    0    0 -0.32438863191E+01 -0.41075338421E+02 -0.64824624262E+01  0.41710053272E+02  0.00000000000E+00 0. -1.
      -12    1    3    3    0    0 -0.25139153665E+01  0.21823248376E+02  0.40821515987E+02  0.46356985532E+02  0.00000000000E+00 0.  1.
        4    1    1    2  501    0  0.57578016856E+01  0.19252090045E+02  0.47627957459E+02  0.51693496526E+02  0.00000000000E+00 0. -1.
</event>
<event>
 5   1  0.6181100E+00  0.8546330E+02  0.7957747E-01  0.1313509E+00
        1   -1    0    0  501    0  0.00000000000E+00  0.00000000000E+00  0.50723367347E+01  0.50723367347E+01  0.00000000000E+00 0. -1.
       -2   -1    0    0    0  501  0.00000000000E+00  0.00000000000E+00 -0.35999064554E+03  0.35999064554E+03  0.00000000000E+00 0.  1.
      -24    2    1    2    0    0  0.00000000000E+00  0.00000000000E+00 -0.35491830881E+03  0.36506298228E+03  0.85463296813E+02 0.  0.
       11    1    3    3    0    0  0.36626460139E+01 -0.19570049045E+02 -0.15951092050E+02  0.25511549013E+02  0.00000000000E+00 0. -1.
      -12    1    3    3    0    0 -0.36626460139E+01  0.19570049045E+02 -0.33896721676E+03  0.33955143326E+03  0.00000000000E+00 0.  1.
</event>
<event>
 5   1  0.6181100E+00  0.7474615E+02  0.7957747E-01  0.1342335E+00
       -2   -1    0    0    0  501  0.00000000000E+00  0.00000000000E+00  0.57220170013E+01  0.57220170013E+01  0.00000000000E+00 0.  1.
        1   -1    0    0  501    0  0.00000000000E+00  0.00000000000E+00 -0.24410042327E+03  0.24410042327E+03  0.00000000000E+00 0. -1.
      -24    2    1    2    0    0  0.00000000000E+00  0.00000000000E+00 -0.23837840627E+03  0.24982244027E+03  0.74746150991E+02 0.  0.
       11    1    3    3    0    0  0.26118221884E+02  0.25317884344E+02 -0.14786080677E+03  0.15226941571E+03  0.00000000000E+00 0. -1.
      -12    1    3    3    0    0 -0.26118221884E+02 -0.25317884344E+02 -0.90517599496E+02  0.97553024559E+02  0.00000000000E+00 0.  1.
</event>
<event>
 5   1  0.6181100E+00  0.8069008E+02  0.7957747E-01  0.1325720E+00
        3   -1    0    0  501    0  0.00000000000E+00  0.00000000000E+00  0.53729599087E+01  0.53729599087E+01  0.00000000000E+00 0. -1.
       -4   -1    0    0    0  501  0.00000000000E+00  0.00000000000E+00 -0.30294704817E+03  0.30294704817E+03  0.00000000000E+00 0.  1.
      -24    2    1    2    0    0  0.00000000000E+00  0.00000000000E+00 -0.29757408826E+03  0.30832000808E+03  0.80690082273E+02 0.  0.
       11    1    3    3    0    0  0.31279896873E+02  0.21991323282E+02 -0.99605038634E+02  0.10669214577E+03  0.00000000000E+00 0. -1.
      -12    1    3    3    0    0 -0.31279896873E+02 -0.21991323282E+02 -0.19796904963E+03  0.20162786231E+03  0.00000000000E+00 0.  1.
</event>
<event>
 5   1  0.6181100E+00  0.7855959E+02  0.7957747E-01  0.1331484E+00
       -2   -1    0    0    0  501  0.00000000000E+00  0.00000000000E+00  0.87108067193E+01  0.87108067193E+01  0.00000000000E+00 0.  1.
        1   -1    0    0  501    0  0.00000000000E+00  0.00000000000E+00 -0.17712507428E+03  0.17712507428E+03  0.00000000000E+00 0. -1.
      -24    2    1    2    0    0  0.00000000000E+00  0.00000000000E+00 -0.16841426756E+03  0.18583588100E+03  0.78559589795E+02 0.  0.
       11    1    3    3    0    0 -0.16326240709E+01  0.26465839344E+02 -0.15275868861E+03  0.15504297166E+03  0.00000000000E+00 0. -1.
      -12    1    3    3    0    0  0.16326240709E+01 -0.26465839344E+02 -0.15655578948E+02  0.30792909342E+02  0.00000000000E+00 0.  1.
</event>
<event>
 5   1  0.6181100E+00  0.7971166E+02  0.7957747E-01  0.1328342E+00
       -2   -1    0    0    0  501  0.00000000000E+00  0.00000000000E+00  0.18566001280E+02  0.18566001280E+02  0.00000000000E+00 0.  1.
        1   -1    0    0  501    0  0.00000000000E+00  0.00000000000E+00 -0.85558928623E+02  0.85558928623E+02  0.00000000000E+00 0. -1.
      -24    2    1    2    0    0  0.00000000000E+00  0.00000000000E+00 -0.66992927343E+02  0.10412492990E+03  0.79711659833E+02 0.  0.
       11    1    3    3    0    0  0.25707145347E+02 -0.12848318848E+02 -0.69568211935E+02  0.75270663150E+02  0.00000000000E+00 0. -1.
      -12    1    3    3    0    0 -0.25707145347E+02  0.12848318848E+02  0.25752845921E+01  0.28854266753E+02  0.00000000000E+00 0.  1.
</event>
<event>
 5   1  0.6181100E+00  0.8129167E+02  0.7957747E-01  0.1324129E+00
        3   -1    0    0  501    0  0.00000000000E+00  0.00000000000E+00  0.20046905108E+02  0.20046905108E+02  0.00000000000E+00 0. -1.
       -4   -1    0    0    0  501  0.00000000000E+00  0.00000000000E+00 -0.82410919300E+02  0.82410919300E+02  0.00000000000E+00 0.  1.
      -24    2    1    2    0    0  0.00000000000E+00  0.00000000000E+00 -0.62364014192E+02  0.10245782441E+03  0.81291669415E+02 0.  0.
       11    1    3    3    0    0 -0.20463319623E+02 -0.34785964025E+02 -0.25101685644E+02  0.47527942995E+02  0.00000000000E+00 0. -1.
      -12    1    3    3    0    0  0.20463319623E+02  0.34785964025E+02 -0.37262328548E+02  0.54929881412E+02  0.00000000000E+00 0.  1.
</event>
<event>
 5   1  0.6181100E+00  0.8035623E+02  0.7957747E-01  0.1326610E+00
        1   -1    0    0  501    0  0.00000000000E+00  0.00000000000E+00  0.26261626212E+02  0.26261626212E+02  0.00000000000E+00 0. -1.
       -2   -1    0    0    0  501  0.00000000000E+00  0.00000000000E+00 -0.61469198883E+02  0.61469198883E+02  0.00000000000E+00 0.  1.
      -24    2    1    2    0    0  0.00000000000E+00  0.00000000000E+00 -0.35207572671E+02  0.87730825094E+02  0.80356234969E+02 0.  0.
       11    1    3    3    0    0 -0.27018333221E+02 -0.72110550014E+01  0.13893298367E+02  0.31225204304E+02  0.00000000000E+00 0. -1.
      -12    1    3    3    0    0  0.27018333221E+02  0.72110550014E+01 -0.49100871038E+02  0.56505620791E+02  0.00000000000E+00 0.  1.
</event>
<event>
 5   1  0.6181100E+00  0.8227746E+02  0.7957747E-01  0.1321556E+00
       -2   -1    0    0    0  501  0.00000000000E+00  0.00000000000E+00  0.41110395366E+02  0.41110395366E+02  0.00000000000E+00 0.  1.
        1   -1    0    0  501    0  0.00000000000E+00  0.00000000000E+00 -0.41167079629E+02  0.41167079629E+02  0.00000000000E+00 0. -1.
      -24    2    1    2    0    0  0.00000000000E+00  0.00000000000E+00 -0.56684263083E-01  0.82277474995E+02  0.82277455469E+02 0.  0.
       11    1    3    3    0    0  0.21784176574E+02 -0.14518454463E+02 -0.31762543375E+02  0.41160600465E+02  0.00000000000E+00 0. -1.
      -12    1    3    3    0    0 -0.21784176574E+02  0.14518454463E+02  0.31705859112E+02  0.41116874529E+02  0.00000000000E+00 0.  1.
</event>
<event>
 5   1  0.6181100E+00  0.8373914E+02  0.7957747E-01  0.1317814E+00
        3   -1    0    0  501    0  0.00000000000E+00  0.00000000000E+00  0.65111697912E+02  0.65111697912E+02  0.00000000000E+00 0. -1.
       -4   -1    0    0    0  501  0.00000000000E+00  0.00000000000E+00 -0.26923899085E+02  0.26923899085E+02  0.00000000000E+00 0.  1.
      -24    2    1    2    0    0  0.00000000000E+00  0.00000000000E+00  0.38187798827E+02  0.92035596996E+02  0.83739137416E+02 0.  0.
       11    1    3    3    0    0 -0.22028986424E+02 -0.24689943239E+02  0.47290931658E+02  0.57717430271E+02  0.00000000000E+00 0. -1.
      -12    1    3    3    0    0  0.22028986424E+02  0.24689943239E+02 -0.91031328315E+01  0.34318166725E+02  0.00000000000E+00 0.  1.
</event>
<event>
 6   2  0.6181100E+00  0.7874476E+02  0.7957747E-01  0.1330975E+00
        1   -1    0    0  502    0  0.00000000000E+00  0.00000000000E+00  0.13951967632E+03  0.13951967632E+03  0.00000000000E+00 0. -1.
       21   -1    0    0  501  502  0.00000000000E+00  0.00000000000E+00 -0.21412989960E+02  0.21412989960E+02  0.00000000000E+00 0.  1.
      -24    2    1    2    0    0 -0.25250139513E+02  0.42295641068E+01  0.10741770242E+03  0.13318896185E+03  0.74466623450E+02 0.  0.
       11    1    3    3    0    0  0.16351680848E+02  0.14832250844E+02  0.78204374747E+02  0.81260675368E+02  0.00000000000E+00 0. -1.
      -12    1    3    3    0    0 -0.41601820360E+02 -0.10602686737E+02  0.29213327668E+02  0.51928286481E+02  0.00000000000E+00 0.  1.
        2    1    1    2  501    0  0.25250139513E+02 -0.42295641068E+01  0.10688983949E+02  0.27743704436E+02  0.00000000000E+00 0. -1.
</event>
<event>
 4   3  0.6181100E+00  0.2214520E+03  0.7957747E-01  0.1139606E+00
       21   -1    0    0  501  502  0.00000000000E+00  0.00000000000E+00  0.86225020096E+02  0.86225020096E+02  0.00000000000E+00 0. -1.
       21   -1    0    0  502  503  0.00000000000E+00  0.00000000000E+00 -0.58466385573E+03  0.58466385573E+03  0.00000000000E+00 0. -1.
        6    1    1    2  501    0 -0.11189110374E+03 -0.81193286897E+02 -0.30455160288E+03  0.37655364525E+03  0.17300000000E+03 0. -1.
       -6    1    1    2    0  503  0.11189110374E+03  0.81193286897E+02 -0.19388723275E+03  0.29433523057E+03  0.17300000000E+03 0. -1.
</event>
<event>
 6   2  0.6181100E+00  0.8702592E+02  0.7957747E-01  0.1309706E+00
        3   -1    0    0  502    0  0.00000000000E+00  0.00000000000E+00  0.67082463720E+02  0.67082463720E+02  0.00000000000E+00 0. -1.
       -4   -1    0    0    0  501  0.00000000000E+00  0.00000000000E+00 -0.72034435208E+02  0.72034435208E+02  0.00000000000E+00 0.  1.
      -24    2    1    2    0    0  0.32556376991E+02 -0.13012187721E+02  0.27576696163E+02  0.91290662079E+02  0.79650964209E+02 0.  0.
       11    1    3    3    0    0  0.21846389168E+02 -0.56400574081E+01  0.55814956105E+02  0.60202859502E+02  0.00000000000E+00 0. -1.
      -12    1    3    3    0    0  0.10709987823E+02 -0.73721303129E+01 -0.28238259942E+02  0.31087802577E+02  0.00000000000E+00 0.  1.
       21    1    1    2  502  501 -0.32556376991E+02  0.13012187721E+02 -0.32528667651E+02  0.47826236850E+02  0.00000000000E+00 0. -1.
</event>
<event>
 5   1  0.6181100E+00  0.7760105E+02  0.7957747E-01  0.1334145E+00
       -2   -1    0    0    0  501  0.00000000000E+00  0.00000000000E+00  0.36639401613E+03  0.36639401613E+03  0.00000000000E+00 0.  1.
        1   -1    0    0  501    0  0.00000000000E+00  0.00000000000E+00 -0.41089118427E+01  0.41089118427E+01  0.00000000000E+00 0. -1.
      -24    2    1    2    0    0  0.00000000000E+00  0.00000000000E+00  0.36228510429E+03  0.37050292797E+03  0.77601049271E+02 0.  0.
       11    1    3    3    0    0  0.14451608137E+02  0.27005995809E+02  0.67423435893E+02  0.74054658834E+02  0.00000000000E+00 0. -1.
      -12    1    3    3    0    0 -0.14451608137E+02 -0.27005995809E+02  0.29486166840E+03  0.29644826914E+03  0.00000000000E+00 0.  1.
</event>
<event>
 5   1  0.6181100E+00  0.7784746E+02  0.7957747E-01  0.1333456E+00
       -2   -1    0    0    0  501  0.00000000000E+00  0.00000000000E+00  0.33880150202E+02  0.33880150202E+02  0.00000000000E+00 0.  1.
        1   -1    0    0  501    0  0.00000000000E+00  0.00000000000E+00 -0.44718125237E+02  0.44718125237E+02  0.00000000000E+00 0. -1.
      -24    2    1    2    0    0  0.00000000000E+00  0.00000000000E+00 -0.10837975035E+02  0.78598275438E+02  0.77847461096E+02 0.  0.
       11    1    3    3    0    0  0.37975292258E+02  0.78298217063E+01 -0.19761332277E+01  0.38824399964E+02  0.00000000000E+00 0. -1.
      -12    1    3    3    0    0 -0.37975292258E+02 -0.78298217063E+01 -0.88618418069E+01  0.39773875474E+02  0.00000000000E+00 0.  1.
</event>
<event>
 5   1  0.6181100E+00  0.7842485E+02  0.7957747E-01  0.1331855E+00
        1   -1    0    0  501    0  0.00000000000E+00  0.00000000000E+00  0.13099428560E+01  0.13099428560E+01  0.00000000000E+00 0. -1.
       -2   -1    0    0    0  501  0.00000000000E+00  0.00000000000E+00 -0.11738024252E+04  0.11738024252E+04  0.00000000000E+00 0.  1.
      -24    2    1    2    0    0  0.00000000000E+00  0.00000000000E+00 -0.11724924824E+04  0.11751123681E+04  0.78424845586E+02 0.  0.
       11    1    3    3    0    0 -0.97679006890E+01 -0.10846859523E+02 -0.40916037800E+02  0.43441781670E+02  0.00000000000E+00 0. -1.
      -12    1    3    3    0    0  0.97679006890E+01  0.10846859523E+02 -0.11315764446E+04  0.11316705864E+04  0.00000000000E+00 0.  1.
</event>
<event>
 6   2  0.6181100E+00  0.6520720E+02  0.7957747E-01  0.1373039E+00
       21   -1    0    0  501  502  0.00000000000E+00  0.00000000000E+00  0.51471266076E+02  0.51471266076E+02  0.00000000000E+00 0. -1.
        1   -1    0    0  502    0  0.00000000000E+00  0.00000000000E+00 -0.38386448303E+02  0.38386448303E+02  0.00000000000E+00 0. -1.
      -24    2    1    2    0    0 -0.43256306134E+01  0.23272112782E+02  0.87145110725E+01  0.65786945920E+02  0.60759174095E+02 0.  0.
       11    1    3    3    0    0 -0.24201347328E+01  0.39546343651E+02 -0.10050246416E+02  0.40875148946E+02  0.00000000000E+00 0. -1.
      -12    1    3    3    0    0 -0.19054958806E+01 -0.16274230869E+02  0.18764757488E+02  0.24911796975E+02  0.00000000000E+00 0.  1.
        2    1    1    2  501    0  0.43256306134E+01 -0.23272112782E+02  0.43703066999E+01  0.24070768459E+02  0.00000000000E+00 0. -1.
</event>
<event>
 5   1  0.6181100E+00  0.8086165E+02  0.7957747E-01  0.1325265E+00
        3   -1    0    0  501    0  0.00000000000E+00  0.00000000000E+00  0.85401052981E+02  0.85401052981E+02  0.00000000000E+00 0. -1.
       -4   -1    0    0    0  501  0.00000000000E+00  0.00000000000E+00 -0.19140882593E+02  0.19140882593E+02  0.00000000000E+00 0.  1.
      -24    2    1    2    0    0  0.00000000000E+00  0.00000000000E+00  0.66260170388E+02  0.10454193557E+03  0.80861647978E+02 0.  0.
       11    1    3    3    0    0  0.10885372093E+02 -0.23969572994E+02  0.72802234843E+02  0.77415742283E+02  0.00000000000E+00 0. -1.
      -12    1    3    3    0    0 -0.10885372093E+02  0.23969572994E+02 -0.65420644554E+01  0.27126193291E+02  0.00000000000E+00 0.  1.
</event>
<event>
 6   2  0.6181100E+00  0.9747497E+02  0.7957747E-01  0.1286395E+00
       -2   -1    0    0    0  501  0.00000000000E+00  0.00000000000E+00  0.45873920742E+02  0.45873920742E+02  0.00000000000E+00 0.  1.
       21   -1    0    0  501  502  0.00000000000E+00  0.00000000000E+00 -0.16504423136E+03  0.16504423136E+03  0.00000000000E+00 0.  1.
      -24    2    1    2    0    0 -0.38672383927E+02  0.38279142412E+02 -0.22581002092E+02  0.10005634378E+03  0.80873507734E+02 0.  0.
       11    1    3    3    0    0  0.23489706033E+02 -0.11323435775E+01 -0.91701146004E+01  0.25241622240E+02  0.00000000000E+00 0. -1.
      -12    1    3    3    0    0 -0.62162089961E+02  0.39411485990E+02 -0.13410887492E+02  0.74814721543E+02  0.00000000000E+00 0.  1.
       -1    1    1    2    0  502  0.38672383927E+02 -0.38279142412E+02 -0.96589308523E+02  0.11086180832E+03  0.00000000000E+00 0.  1.
</event>
<event>
 5   1  0.6181100E+00  0.8024852E+02  0.7957747E-01  0.1326898E+00
       -4   -1    0    0    0  501  0.00000000000E+00  0.00000000000E+00  0.34694005887E+01  0.34694005887E+01  0.00000000000E+00 0.  1.
        3   -1    0    0  501    0  0.00000000000E+00  0.00000000000E+00 -0.46404445329E+03  0.46404445329E+03  0.00000000000E+00 0. -1.
      -24    2    1    2    0    0  0.00000000000E+00  0.00000000000E+00 -0.46057505270E+03  0.46751385388E+03  0.80248516483E+02 0.  0.
       11    1    3    3    0    0 -0.20691125659E+02 -0.23958661385E+02 -0.86658067826E+02  0.92259204721E+02  0.00000000000E+00 0. -1.
      -12    1    3    3    0    0  0.20691125659E+02  0.23958661385E+02 -0.37391698488E+03  0.37525464916E+03  0.00000000000E+00 0.  1.
</event>
<event>
 4   3  0.6181100E+00  0.1851776E+03  0.7957747E-01  0.1168678E+00
       21   -1    0    0  503  502  0.00000000000E+00  0.00000000000E+00  0.25267442909E+03  0.25267442909E+03  0.00000000000E+00 0.  1.
       21   -1    0    0  501  503  0.00000000000E+00  0.00000000000E+00 -0.14643134012E+03  0.14643134012E+03  0.00000000000E+00 0.  1.
        6    1    1    2  501    0  0.56468672943E+02 -0.34249451750E+02 -0.87206310072E+00  0.18517963296E+03  0.17300000000E+03 0.  1.
       -6    1    1    2    0  502 -0.56468672943E+02  0.34249451750E+02  0.10711515206E+03  0.21392613625E+03  0.17300000000E+03 0.  1.
</event>
<event>
 6   2  0.6181100E+00  0.9053307E+02  0.7957747E-01  0.1301488E+00
        1   -1    0    0  502    0  0.00000000000E+00  0.00000000000E+00  0.18628616959E+03  0.18628616959E+03  0.00000000000E+00 0. -1.
       21   -1    0    0  501  502  0.00000000000E+00  0.00000000000E+00 -0.23299444149E+02  0.23299444149E+02  0.00000000000E+00 0.  1.
      -24    2    1    2    0    0  0.27351291704E+02  0.28865532722E+02  0.12691904429E+03  0.15589958426E+03  0.81332185714E+02 0.  0.
       11    1    3    3    0    0  0.36305374068E+02  0.13639593604E+02  0.13195154857E+03  0.13753301375E+03  0.00000000000E+00 0. -1.
      -12    1    3    3    0    0 -0.89540823636E+01  0.15225939118E+02 -0.50325042866E+01  0.18366570513E+02  0.00000000000E+00 0.  1.
        2    1    1    2  501    0 -0.27351291704E+02 -0.28865532722E+02  0.36067681153E+02  0.53686029477E+02  0.00000000000E+00 0. -1.
</event>
<event>
 4   3  0.6181100E+00  0.2345528E+03  0.7957747E-01  0.1130571E+00
       21   -1    0    0  501  502  0.00000000000E+00  0.00000000000E+00  0.26307365725E+03  0.26307365725E+03  0.00000000000E+00 0.  1.
       21   -1    0    0  502  503  0.00000000000E+00  0.00000000000E+00 -0.75571395147E+03  0.75571395147E+03  0.00000000000E+00 0.  1.
        6    1    1    2  501    0 -0.78159258203E+02 -0.13775758195E+03  0.18689711346E+03  0.29990923969E+03  0.17300000000E+03 0.  1.
       -6    1    1    2    0  503  0.78159258203E+02  0.13775758195E+03 -0.67953740768E+03  0.71887836903E+03  0.17300000000E+03 0.  1.
</event>
<event>
 5   1  0.6181100E+00  0.8146508E+02  0.7957747E-01  0.1323674E+00
        3   -1    0    0  501    0  0.00000000000E+00  0.00000000000E+00  0.11868448872E+03  0.11868448872E+03  0.00000000000E+00 0. -1.
       -4   -1    0    0    0  501  0.00000000000E+00  0.00000000000E+00 -0.13979414305E+02  0.13979414305E+02  0.00000000000E+00 0.  1.
      -24    2    1    2    0    0  0.00000000000E+00  0.00000000000E+00  0.10470507442E+03  0.13266390303E+03  0.81465075693E+02 0.  0.
       11    1    3    3    0    0 -0.28932323642E+02  0.12586598161E+02  0.94303977308E+02  0.99442153741E+02  0.00000000000E+00 0. -1.
      -12    1    3    3    0    0  0.28932323642E+02 -0.12586598161E+02  0.10401097112E+02  0.33221749288E+02  0.00000000000E+00 0.  1.
</event>
<event>
 5   1  0.6181100E+00  0.8060540E+02  0.7957747E-01  0.1325946E+00
        1   -1    0    0  501    0  0.00000000000E+00  0.00000000000E+00  0.22450637861E+02  0.22450637861E+02  0.00000000000E+00 0. -1.
       -2   -1    0    0    0  501  0.00000000000E+00  0.00000000000E+00 -0.72350177127E+02  0.72350177127E+02  0.00000000000E+00 0.  1.
      -24    2    1    2    0    0  0.00000000000E+00  0.00000000000E+00 -0.49899539266E+02  0.94800814989E+02  0.80605399966E+02 0.  0.
       11    1    3    3    0    0  0.22364483713E+02 -0.68323430550E+01  0.13655609597E+02  0.27080005850E+02  0.00000000000E+00 0. -1.
      -12    1    3    3    0    0 -0.22364483713E+02  0.68323430550E+01 -0.63555148863E+02  0.67720809139E+02  0.00000000000E+00 0.  1.
</event>
<event>
 5   1  0.6181100E+00  0.7921320E+02  0.7957747E-01  0.1329694E+00
       -2   -1    0    0    0  501  0.00000000000E+00  0.00000000000E+00  0.16843647069E+03  0.16843647069E+03  0.00000000000E+00 0.  1.
        1   -1    0    0  501    0  0.00000000000E+00  0.00000000000E+00 -0.93132012962E+01  0.93132012962E+01  0.00000000000E+00 0. -1.
      -24    2    1    2    0    0  0.00000000000E+00  0.00000000000E+00  0.15912326939E+03  0.17774967198E+03  0.79213199838E+02 0.  0.
       11    1    3    3    0    0 -0.20682994877E+02  0.33002801748E+02  0.95697975481E+02  0.10332024831E+03  0.00000000000E+00 0. -1.
      -12    1    3    3    0    0  0.20682994877E+02 -0.33002801748E+02  0.63425293910E+02  0.74429423670E+02  0.00000000000E+00 0.  1.
</event>
<event>
 4   3  0.6181100E+00  0.1911299E+03  0.7957747E-01  0.1163429E+00
       21   -1    0    0  503  502  0.00000000000E+00  0.00000000000E+00  0.36881728258E+03  0.36881728258E+03  0.00000000000E+00 0.  1.
       21   -1    0    0  501  503  0.00000000000E+00  0.00000000000E+00 -0.12107657202E+03  0.12107657202E+03  0.00000000000E+00 0.  1.
        6    1    1    2  501    0  0.19206462656E+02 -0.78947691078E+02  0.19389963739E+02  0.19211089721E+03  0.17300000000E+03 0.  1.
       -6    1    1    2    0  502 -0.19206462656E+02  0.78947691078E+02  0.22835074682E+03  0.29778295738E+03  0.17300000000E+03 0.  1.
</event>
<event>
 5   1  0.6181100E+00  0.7916742E+02  0.7957747E-01  0.1329818E+00
       -4   -1    0    0    0  501  0.00000000000E+00  0.00000000000E+00  0.96516477174E+01  0.96516477174E+01  0.00000000000E+00 0.  1.
        3   -1    0    0  501    0  0.00000000000E+00  0.00000000000E+00 -0.16234224363E+03  0.16234224363E+03  0.00000000000E+00 0. -1.
      -24    2    1    2    0    0  0.00000000000E+00  0.00000000000E+00 -0.15269059591E+03  0.17199389134E+03  0.79167421207E+02 0.  0.
       11    1    3    3    0    0  0.75284284377E+01 -0.32594510490E+02 -0.12231843140E+03  0.12681040182E+03  0.00000000000E+00 0. -1.
      -12    1    3    3    0    0 -0.75284284377E+01  0.32594510490E+02 -0.30372164507E+02  0.45183489525E+02  0.00000000000E+00 0.  1.
</event>
<event>
 6   2  0.6181100E+00  0.8351735E+02  0.7957747E-01  0.1318376E+00
       21   -1    0    0  501  502  0.00000000000E+00  0.00000000000E+00  0.58887075468E+02  0.58887075468E+02  0.00000000000E+00 0. -1.
       -2   -1    0    0    0  501  0.00000000000E+00  0.00000000000E+00 -0.51133521560E+02  0.51133521560E+02  0.00000000000E+00 0.  1.
      -24    2    1    2    0    0  0.21908275299E+02  0.11276465597E+02 -0.19464156927E+01  0.83540026544E+02  0.79799851491E+02 0.  0.
       11    1    3    3    0    0  0.26096232405E+02 -0.14977287004E+02  0.29652708003E+02  0.42244710482E+02  0.00000000000E+00 0. -1.
      -12    1    3    3    0    0 -0.41879571059E+01  0.26253752601E+02 -0.31599123696E+02  0.41295316063E+02  0.00000000000E+00 0.  1.
       -1    1    1    2    0  502 -0.21908275299E+02 -0.11276465597E+02  0.96999696007E+01  0.26480570484E+02  0.00000000000E+00 0.  1.
</event>
<event>
 5   1  0.6181100E+00  0.7913990E+02  0.7957747E-01  0.1329893E+00
       -2   -1    0    0    0  501  0.00000000000E+00  0.00000000000E+00  0.50714806701E+03  0.50714806701E+03  0.00000000000E+00 0.  1.
        1   -1    0    0  501    0  0.00000000000E+00  0.00000000000E+00 -0.30874237729E+01  0.30874237729E+01  0.00000000000E+00 0. -1.
      -24    2    1    2    0    0  0.00000000000E+00  0.00000000000E+00  0.50406064323E+03  0.51023549078E+03  0.79139901402E+02 0.  0.
       11    1    3    3    0    0  0.38301015274E+02  0.63559221293E+00  0.18807258004E+03  0.19193401760E+03  0.00000000000E+00 0. -1.
      -12    1    3    3    0    0 -0.38301015274E+02 -0.63559221293E+00  0.31598806320E+03  0.31830147318E+03  0.00000000000E+00 0.  1.
</event>
<event>
 6   2  0.6181100E+00  0.9527483E+02  0.7957747E-01  0.1291022E+00
        1   -1    0    0  502    0  0.00000000000E+00  0.00000000000E+00  0.53955039807E+02  0.53955039807E+02  0.00000000000E+00 0. -1.
       21   -1    0    0  501  502  0.00000000000E+00  0.00000000000E+00 -0.15156485283E+03  0.15156485283E+03  0.00000000000E+00 0. -1.
      -24    2    1    2    0    0  0.42122474682E+02  0.26891333012E+02  0.65528406542E+00  0.95277088017E+02  0.81116258785E+02 0.  0.
       11    1    3    3    0    0  0.55350117753E+02  0.44943988826E+02  0.79427305726E+01  0.71740397516E+02  0.00000000000E+00 0. -1.
      -12    1    3    3    0    0 -0.13227643071E+02 -0.18052655813E+02 -0.72874465072E+01  0.23536690501E+02  0.00000000000E+00 0.  1.
        2    1    1    2  501    0 -0.42122474682E+02 -0.26891333012E+02 -0.98265097087E+02  0.11024280462E+03  0.00000000000E+00 0. -1.
</event>
<event>
 5   1  0.6181100E+00  0.8136457E+02  0.7957747E-01  0.1323938E+00
        3   -1    0    0  501    0  0.00000000000E+00  0.00000000000E+00  0.79237731904E+02  0.79237731904E+02  0.00000000000E+00 0. -1.
       -4   -1    0    0    0  501  0.00000000000E+00  0.00000000000E+00 -0.20887125140E+02  0.20887125140E+02  0.00000000000E+00 0.  1.
      -24    2    1    2    0    0  0.00000000000E+00  0.00000000000E+00  0.58350606764E+02  0.10012485704E+03  0.81364572686E+02 0.  0.
       11    1    3    3    0    0  0.31346791100E+02  0.24142729129E+02  0.17529933839E+02  0.43275758370E+02  0.00000000000E+00 0. -1.
      -12    1    3    3    0    0 -0.31346791100E+02 -0.24142729129E+02  0.40820672925E+02  0.56849098674E+02  0.00000000000E+00 0.  1.
</event>
<event>
 5   1  0.6181100E+00  0.7686808E+02  0.7957747E-01  0.1336209E+00
       -4   -1    0    0    0  501  0.00000000000E+00  0.00000000000E+00  0.38420640800E+02  0.38420640800E+02  0.00000000000E+00 0.  1.
        3   -1    0    0  501    0  0.00000000000E+00  0.00000000000E+00 -0.38447444988E+02  0.38447444988E+02  0.00000000000E+00 0. -1.
      -24    2    1    2    0    0  0.00000000000E+00  0.00000000000E+00 -0.26804188630E-01  0.76868085788E+02  0.76868081115E+02 0.  0.
       11    1    3    3    0    0  0.19189736129E+02  0.28499363497E+02 -0.17238843082E+02  0.38440049470E+02  0.00000000000E+00 0. -1.
      -12    1    3    3    0    0 -0.19189736129E+02 -0.28499363497E+02  0.17212038894E+02  0.38428036318E+02  0.00000000000E+00 0.  1.
</event>
<event>
 5   1  0.6181100E+00  0.8001001E+02  0.7957747E-01  0.1327538E+00
       -2   -1    0    0    0  501  0.00000000000E+00  0.00000000000E+00  0.13804731699E+02  0.13804731699E+02  0.00000000000E+00 0.  1.
        1   -1    0    0  501    0  0.00000000000E+00  0.00000000000E+00 -0.11593128525E+03  0.11593128525E+03  0.00000000000E+00 0. -1.
      -24    2    1    2    0    0  0.00000000000E+00  0.00000000000E+00 -0.10212655355E+03  0.12973601695E+03  0.80010006585E+02 0.  0.
       11    1    3    3    0    0 -0.17662229180E+02 -0.13914516800E+02 -0.10471578496E+03  0.10710258511E+03  0.00000000000E+00 0. -1.
      -12    1    3    3    0    0  0.17662229180E+02  0.13914516800E+02  0.25892314132E+01  0.22633431836E+02  0.00000000000E+00 0.  1.
</event>
<event>
 6   2  0.6181100E+00  0.7327054E+02  0.7957747E-01  0.1346734E+00
        1   -1    0    0  502    0  0.00000000000E+00  0.00000000000E+00  0.63991120392E+03  0.63991120392E+03  0.00000000000E+00 0. -1.
       21   -1    0    0  501  502  0.00000000000E+00  0.00000000000E+00 -0.41148991246E+01  0.41148991246E+01  0.00000000000E+00 0. -1.
      -24    2    1    2    0    0 -0.27058017990E+02  0.99217294672E+01  0.42516876651E+03  0.43143603522E+03  0.67364645166E+02 0.  0.
       11    1    3    3    0    0 -0.83750396381E+01  0.34869942010E+02  0.13810403927E+03  0.14268419607E+03  0.00000000000E+00 0. -1.
      -12    1    3    3    0    0 -0.18682978351E+02 -0.24948212543E+02  0.28706472724E+03  0.28875183915E+03  0.00000000000E+00 0.  1.
        2    1    1    2  501    0  0.27058017990E+02 -0.99217294672E+01  0.21062753829E+03  0.21259006782E+03  0.00000000000E+00 0. -1.
</event>
<event>
 6   2  0.6181100E+00  0.8484330E+02  0.7957747E-01  0.1315044E+00
       21   -1    0    0  501  502  0.00000000000E+00  0.00000000000E+00  0.22582633668E+03  0.22582633668E+03  0.00000000000E+00 0.  1.
       -2   -1    0    0    0  501  0.00000000000E+00  0.00000000000E+00 -0.87572362194E+02  0.87572362194E+02  0.00000000000E+00 0.  1.
      -24    2    1    2    0    0  0.16232549874E+02  0.21780261648E+02 -0.65909685918E+02  0.10743589713E+03  0.80377296678E+02 0.  0.
       11    1    3    3    0    0 -0.69199316211E+01  0.47786674400E+02 -0.27394744958E+02  0.55515076828E+02  0.00000000000E+00 0. -1.
      -12    1    3    3    0    0  0.23152481495E+02 -0.26006412752E+02 -0.38514940960E+02  0.51920820301E+02  0.00000000000E+00 0.  1.
       -1    1    1    2    0  502 -0.16232549874E+02 -0.21780261648E+02  0.20416366041E+03  0.20596280175E+03  0.00000000000E+00 0.  1.
</event>
<event>
 5   1  0.6181100E+00  0.8960706E+02  0.7957747E-01  0.1303617E+00
       -2   -1    0    0    0  501  0.00000000000E+00  0.00000000000E+00  0.10749179382E+02  0.10749179382E+02  0.00000000000E+00 0.  1.
        1   -1    0    0  501    0  0.00000000000E+00  0.00000000000E+00 -0.18674505464E+03  0.18674505464E+03  0.00000000000E+00 0. -1.
      -24    2    1    2    0    0  0.00000000000E+00  0.00000000000E+00 -0.17599587526E+03  0.19749423403E+03  0.89607055325E+02 0.  0.
       11    1    3    3    0    0 -0.74434226041E+01  0.41590768092E+02 -0.12084864448E+03  0.12802183955E+03  0.00000000000E+00 0. -1.
      -12    1    3    3    0    0  0.74434226041E+01 -0.41590768092E+02 -0.55147230787E+02  0.69472394474E+02  0.00000000000E+00 0.  1.
</event>
<event>
 5   1  0.6181100E+00  0.8101590E+02  0.7957747E-01  0.1324857E+00
       -2   -1    0    0    0  501  0.00000000000E+00  0.00000000000E+00  0.48606630880E+01  0.48606630880E+01  0.00000000000E+00 0.  1.
        1   -1    0    0  501    0  0.00000000000E+00  0.00000000000E+00 -0.33758644132E+03  0.33758644132E+03  0.00000000000E+00 0. -1.
      -24    2    1    2    0    0  0.00000000000E+00  0.00000000000E+00 -0.33272577823E+03  0.34244710441E+03  0.81015898547E+02 0.  0.
       11    1    3    3    0    0  0.28717773294E+01 -0.38729088752E+02 -0.21505584349E+03  0.21853421983E+03  0.00000000000E+00 0. -1.
      -12    1    3    3    0    0 -0.28717773294E+01  0.38729088752E+02 -0.11766993475E+03  0.12391288458E+03  0.00000000000E+00 0.  1.
</event>
<event>
 5   1  0.6181100E+00  0.8118233E+02  0.7957747E-01  0.1324417E+00
       -2   -1    0    0    0  501  0.00000000000E+00  0.00000000000E+00  0.49539586361E+02  0.49539586361E+02  0.00000000000E+00 0.  1.
        1   -1    0    0  501    0  0.00000000000E+00  0.00000000000E+00 -0.33259112200E+02  0.33259112200E+02  0.00000000000E+00 0. -1.
      -24    2    1    2    0    0  0.00000000000E+00  0.00000000000E+00  0.16280474161E+02  0.82798698561E+02  0.81182329632E+02 0.  0.
       11    1    3    3    0    0 -0.29639914216E+02  0.11977691806E+02 -0.17370839249E+02  0.36383178420E+02  0.00000000000E+00 0. -1.
      -12    1    3    3    0    0  0.29639914216E+02 -0.11977691806E+02  0.33651313411E+02  0.46415520141E+02  0.00000000000E+00 0.  1.
</event>
<event>
 5   1  0.6181100E+00  0.8234577E+02  0.7957747E-01  0.1321379E+00
       -2   -1    0    0    0  501  0.00000000000E+00  0.00000000000E+00  0.33820191602E+02  0.33820191602E+02  0.00000000000E+00 0.  1.
        1   -1    0    0  501    0  0.00000000000E+00  0.00000000000E+00 -0.50124097879E+02  0.50124097879E+02  0.00000000000E+00 0. -1.
      -24    2    1    2    0    0  0.00000000000E+00  0.00000000000E+00 -0.16303906277E+02  0.83944289482E+02  0.82345773277E+02 0.  0.
       11    1    3    3    0    0  0.87740147097E+01  0.35283041514E+02 -0.27848787418E+02  0.45797721704E+02  0.00000000000E+00 0. -1.
      -12    1    3    3    0    0 -0.87740147097E+01 -0.35283041514E+02  0.11544881141E+02  0.38146567777E+02  0.00000000000E+00 0.  1.
</event>
<event>
 5   1  0.6181100E+00  0.8132964E+02  0.7957747E-01  0.1324029E+00
        1   -1    0    0  501    0  0.00000000000E+00  0.00000000000E+00  0.20646725471E+03  0.20646725471E+03  0.00000000000E+00 0. -1.
       -2   -1    0    0    0  501  0.00000000000E+00  0.00000000000E+00 -0.80091520560E+01  0.80091520560E+01  0.00000000000E+00 0.  1.
      -24    2    1    2    0    0  0.00000000000E+00  0.00000000000E+00  0.19845810266E+03  0.21447640677E+03  0.81329641277E+02 0.  0.
       11    1    3    3    0    0 -0.29021828139E+02  0.20816753974E+02  0.15050223536E+03  0.15468201771E+03  0.00000000000E+00 0. -1.
      -12    1    3    3    0    0  0.29021828139E+02 -0.20816753974E+02  0.47955867291E+02  0.59794389053E+02  0.00000000000E+00 0.  1.
</event>
<event>
 5   1  0.6181100E+00  0.8030150E+02  0.7957747E-01  0.1326756E+00
        1   -1    0    0  501    0  0.00000000000E+00  0.00000000000E+00  0.55963163019E+02  0.55963163019E+02  0.00000000000E+00 0. -1.
       -2   -1    0    0    0  501  0.00000000000E+00  0.00000000000E+00 -0.28806140351E+02  0.28806140351E+02  0.00000000000E+00 0.  1.
      -24    2    1    2    0    0  0.00000000000E+00  0.00000000000E+00  0.27157022668E+02  0.84769303370E+02  0.80301500071E+02 0.  0.
       11    1    3    3    0    0  0.30319953222E+02  0.13316152944E+02  0.37545518395E+02  0.50062814984E+02  0.00000000000E+00 0. -1.
      -12    1    3    3    0    0 -0.30319953222E+02 -0.13316152944E+02 -0.10388495727E+02  0.34706488386E+02  0.00000000000E+00 0.  1.
</event>
<event>
 5   1  0.6181100E+00  0.8087407E+02  0.7957747E-01  0.1325232E+00
       -2   -1    0    0    0  501  0.00000000000E+00  0.00000000000E+00  0.15937080209E+03  0.15937080209E+03  0.00000000000E+00 0.  1.
        1   -1    0    0  501    0  0.00000000000E+00  0.00000000000E+00 -0.10260058527E+02  0.10260058527E+02  0.00000000000E+00 0. -1.
      -24    2    1    2    0    0  0.00000000000E+00  0.00000000000E+00  0.14911074356E+03  0.16963086061E+03  0.80874068946E+02 0.  0.
       11    1    3    3    0    0  0.35595536037E+02 -0.12196401615E+02  0.43490207434E+02  0.57508195423E+02  0.00000000000E+00 0. -1.
      -12    1    3    3    0    0 -0.35595536037E+02  0.12196401615E+02  0.10562053613E+03  0.11212266519E+03  0.00000000000E+00 0.  1.
</event>
<event>
 6   2  0.6181100E+00  0.8941290E+02  0.7957747E-01  0.1304066E+00
       -2   -1    0    0    0  501  0.00000000000E+00  0.00000000000E+00  0.59170944371E+01  0.59170944371E+01  0.00000000000E+00 0.  1.
        1   -1    0    0  502    0  0.00000000000E+00  0.00000000000E+00 -0.84480896334E+03  0.84480896334E+03  0.00000000000E+00 0. -1.
      -24    2    1    2    0    0 -0.23248559175E+02  0.29116106283E+02 -0.38231388908E+03  0.39263033109E+03  0.81279911174E+02 0.  0.
       11    1    3    3    0    0  0.27876822852E+02 -0.65980818892E+00 -0.16806224975E+03  0.17035983209E+03  0.00000000000E+00 0. -1.
      -12    1    3    3    0    0 -0.51125382027E+02  0.29775914472E+02 -0.21425163933E+03  0.22227049900E+03  0.00000000000E+00 0.  1.
       21    1    1    2  502  501  0.23248559175E+02 -0.29116106283E+02 -0.45657797982E+03  0.45809572669E+03  0.00000000000E+00 0. -1.
</event>
<event>
 6   2  0.6181100E+00  0.8320763E+02  0.7957747E-01  0.1319164E+00
        3   -1    0    0  502    0  0.00000000000E+00  0.00000000000E+00  0.25960675685E+02  0.25960675685E+02  0.00000000000E+00 0. -1.
       21   -1    0    0  501  502  0.00000000000E+00  0.00000000000E+00 -0.11703126818E+03  0.11703126818E+03  0.00000000000E+00 0.  1.
      -24    2    1    2    0    0 -0.15296855520E+02  0.21074155123E+02 -0.77117316734E+02  0.11344862470E+03  0.79027818539E+02 0.  0.
       11    1    3    3    0    0 -0.85597072592E+01  0.22432385272E+02  0.10037189668E+02  0.26023559975E+02  0.00000000000E+00 0. -1.
      -12    1    3    3    0    0 -0.67371482606E+01 -0.13582301491E+01 -0.87154506402E+02  0.87425064724E+02  0.00000000000E+00 0.  1.
        4    1    1    2  501    0  0.15296855520E+02 -0.21074155123E+02 -0.13953275764E+02  0.29543319168E+02  0.00000000000E+00 0. -1.
</event>
<event>
 6   2  0.6181100E+00  0.8303519E+02  0.7957747E-01  0.1319605E+00
        1   -1    0    0  502    0  0.00000000000E+00  0.00000000000E+00  0.26142713907E+03  0.26142713907E+03  0.00000000000E+00 0. -1.
       21   -1    0    0  501  502  0.00000000000E+00  0.00000000000E+00 -0.15564534793E+02  0.15564534793E+02  0.00000000000E+00 0. -1.
      -24    2    1    2    0    0 -0.15267120960E+02 -0.23372588192E+02  0.23077392600E+03  0.24525792096E+03  0.78201534575E+02 0.  0.
       11    1    3    3    0    0 -0.21658801442E+02 -0.34760883598E+02  0.22832711409E+03  0.23197132094E+03  0.00000000000E+00 0. -1.
      -12    1    3    3    0    0  0.63916804823E+01  0.11388295406E+02  0.24468119121E+01  0.13286600023E+02  0.00000000000E+00 0.  1.
        2    1    1    2  501    0  0.15267120960E+02  0.23372588192E+02  0.15088678275E+02  0.31733752902E+02  0.00000000000E+00 0. -1.
</event>
<event>
 5   1  0.6181100E+00  0.8029234E+02  0.7957747E-01  0.1326781E+00
        3   -1    0    0  501    0  0.00000000000E+00  0.00000000000E+00  0.28121374125E+02  0.28121374125E+02  0.00000000000E+00 0. -1.
       -4   -1    0    0    0  501  0.00000000000E+00  0.00000000000E+00 -0.57312804955E+02  0.57312804955E+02  0.00000000000E+00 0.  1.
      -24    2    1    2    0    0  0.00000000000E+00  0.00000000000E+00 -0.29191430830E+02  0.85434179080E+02  0.80292336628E+02 0.  0.
       11    1    3    3    0    0  0.14307175324E+01  0.30930380010E+02  0.12594166256E+02  0.33426761493E+02  0.00000000000E+00 0. -1.
      -12    1    3    3    0    0 -0.14307175324E+01 -0.30930380010E+02 -0.41785597086E+02  0.52007417587E+02  0.00000000000E+00 0.  1.
</event>
<event>
 5   1  0.6181100E+00  0.8301023E+02  0.7957747E-01  0.1319669E+00
        1   -1    0    0  501    0  0.00000000000E+00  0.00000000000E+00  0.41454278477E+02  0.41454278477E+02  0.00000000000E+00 0. -1.
       -2   -1    0    0    0  501  0.00000000000E+00  0.00000000000E+00 -0.41556015703E+02  0.41556015703E+02  0.00000000000E+00 0.  1.
      -24    2    1    2    0    0  0.00000000000E+00  0.00000000000E+00 -0.10173722576E+00  0.83010294180E+02  0.83010231835E+02 0.  0.
       11    1    3    3    0    0 -0.37310589671E+02 -0.93999885670E+01  0.15513035928E+02  0.41486072004E+02  0.00000000000E+00 0. -1.
      -12    1    3    3    0    0  0.37310589671E+02  0.93999885670E+01 -0.15614773154E+02  0.41524222175E+02  0.00000000000E+00 0.  1.
</event>
<event>
 5   1  0.6181100E+00  0.7956209E+02  0.7957747E-01  0.1328746E+00
        1   -1    0    0  501    0  0.00000000000E+00  0.00000000000E+00  0.20556717062E+03  0.20556717062E+03  0.00000000000E+00 0. -1.
       -2   -1    0    0    0  501  0.00000000000E+00  0.00000000000E+00 -0.76983676923E+01  0.76983676923E+01  0.00000000000E+00 0.  1.
      -24    2    1    2    0    0  0.00000000000E+00  0.00000000000E+00  0.19786880293E+03  0.21326553831E+03  0.79562093108E+02 0.  0.
       11    1    3    3    0    0  0.37837098595E+02 -0.81696333131E+01  0.12352237705E+03  0.12944561240E+03  0.00000000000E+00 0. -1.
      -12    1    3    3    0    0 -0.37837098595E+02  0.81696333131E+01  0.74346425882E+02  0.83819925913E+02  0.00000000000E+00 0.  1.
</event>
<event>
 5   1  0.6181100E+00  0.5410178E+02  0.7957747E-01  0.1417374E+00
       -2   -1    0    0    0  501  0.00000000000E+00  0.00000000000E+00  0.37853717152E+01  0.37853717152E+01  0.00000000000E+00 0.  1.
        1   -1    0    0  501    0  0.00000000000E+00  0.00000000000E+00 -0.19331011366E+03  0.19331011366E+03  0.00000000000E+00 0. -1.
      -24    2    1    2    0    0  0.00000000000E+00  0.00000000000E+00 -0.18952474195E+03  0.19709548538E+03  0.54101779509E+02 0.  0.
       11    1    3    3    0    0 -0.12858357299E+02  0.23771020347E+02 -0.98998152190E+02  0.10262082098E+03  0.00000000000E+00 0. -1.
      -12    1    3    3    0    0  0.12858357299E+02 -0.23771020347E+02 -0.90526589756E+02  0.94474664400E+02  0.00000000000E+00 0.  1.
</event>
<event>
 5   1  0.6181100E+00  0.8436056E+02  0.7957747E-01  0.1316249E+00
       -2   -1    0    0    0  501  0.00000000000E+00  0.00000000000E+00  0.68484500260E+02  0.68484500260E+02  0.00000000000E+00 0.  1.
        1   -1    0    0  501    0  0.00000000000E+00  0.00000000000E+00 -0.25979249483E+02  0.25979249483E+02  0.00000000000E+00 0. -1.
      -24    2    1    2    0    0  0.00000000000E+00  0.00000000000E+00  0.42505250777E+02  0.94463749743E+02  0.84360557561E+02 0.  0.
       11    1    3    3    0    0 -0.36102860420E+02 -0.21647391130E+02  0.24246778788E+02  0.48579134974E+02  0.00000000000E+00 0. -1.
      -12    1    3    3    0    0  0.36102860420E+02  0.21647391130E+02  0.18258471989E+02  0.45884614770E+02  0.00000000000E+00 0.  1.
</event>
<event>
 5   1  0.6181100E+00  0.7989620E+02  0.7957747E-01  0.1327844E+00
       -4   -1    0    0    0  501  0.00000000000E+00  0.00000000000E+00  0.37010144323E+02  0.37010144323E+02  0.00000000000E+00 0.  1.
        3   -1    0    0  501    0  0.00000000000E+00  0.00000000000E+00 -0.43119282767E+02  0.43119282767E+02  0.00000000000E+00 0. -1.
      -24    2    1    2    0    0  0.00000000000E+00  0.00000000000E+00 -0.61091384446E+01  0.80129427090E+02  0.79896204624E+02 0.  0.
       11    1    3    3    0    0  0.30077933414E+02  0.22862220037E+02  0.99636021041E+01  0.39072196641E+02  0.00000000000E+00 0. -1.
      -12    1    3    3    0    0 -0.30077933414E+02 -0.22862220037E+02 -0.16072740549E+02  0.41057230450E+02  0.00000000000E+00 0.  1.
</event>
<event>
 6   2  0.6181100E+00  0.1558953E+03  0.7957747E-01  0.1198086E+00
        1   -1    0    0  502    0  0.00000000000E+00  0.00000000000E+00  0.54231002165E+03  0.54231002165E+03  0.00000000000E+00 0. -1.
       21   -1    0    0  501  502  0.00000000000E+00  0.00000000000E+00 -0.43853062834E+02  0.43853062834E+02  0.00000000000E+00 0. -1.
      -24    2    1    2    0    0 -0.10630680220E+03  0.79491064214E+02  0.36974564685E+03  0.40126698580E+03  0.81751972698E+02 0.  0.
       11    1    3    3    0    0 -0.10493606136E+03  0.70894977267E+02  0.24117830376E+03  0.27240530278E+03  0.00000000000E+00 0. -1.
      -12    1    3    3    0    0 -0.13707408381E+01  0.85960869467E+01  0.12856734309E+03  0.12886168302E+03  0.00000000000E+00 0.  1.
        2    1    1    2  501    0  0.10630680220E+03 -0.79491064214E+02  0.12871131196E+03  0.18489609869E+03  0.00000000000E+00 0. -1.
</event>
<event>
 5   1  0.6181100E+00  0.7862774E+02  0.7957747E-01  0.1331296E+00
        1   -1    0    0  501    0  0.00000000000E+00  0.00000000000E+00  0.56981650044E+01  0.56981650044E+01  0.00000000000E+00 0. -1.
       -2   -1    0    0    0  501  0.00000000000E+00  0.00000000000E+00 -0.27124180446E+03  0.27124180446E+03  0.00000000000E+00 0.  1.
      -24    2    1    2    0    0  0.00000000000E+00  0.00000000000E+00 -0.26554363945E+03  0.27693996946E+03  0.78627744668E+02 0.  0.
       11    1    3    3    0    0 -0.34349968955E+02  0.18634203663E+02 -0.11765247566E+03  0.12397281533E+03  0.00000000000E+00 0. -1.
      -12    1    3    3    0    0  0.34349968955E+02 -0.18634203663E+02 -0.14789116380E+03  0.15296715413E+03  0.00000000000E+00 0.  1.
</event>
<event>
 5   1  0.6181100E+00  0.7885908E+02  0.7957747E-01  0.1330661E+00
       -4   -1    0    0    0  501  0.00000000000E+00  0.00000000000E+00  0.10485779423E+03  0.10485779423E+03  0.00000000000E+00 0.  1.
        3   -1    0    0  501    0  0.00000000000E+00  0.00000000000E+00 -0.14826637697E+02  0.14826637697E+02  0.00000000000E+00 0. -1.
      -24    2    1    2    0    0  0.00000000000E+00  0.00000000000E+00  0.90031156538E+02  0.11968443193E+03  0.78859077470E+02 0.  0.
       11    1    3    3    0    0 -0.10436143032E+02  0.15821380582E+02 -0.74595343093E+01  0.20368451512E+02  0.00000000000E+00 0. -1.
      -12    1    3    3    0    0  0.10436143032E+02 -0.15821380582E+02  0.97490690847E+02  0.99315980420E+02  0.00000000000E+00 0.  1.
</event>
<event>
 5   1  0.6181100E+00  0.7787208E+02  0.7957747E-01  0.1333388E+00
       -2   -1    0    0    0  501  0.00000000000E+00  0.00000000000E+00  0.44778255677E+03  0.44778255677E+03  0.00000000000E+00 0.  1.
        1   -1    0    0  501    0  0.00000000000E+00  0.00000000000E+00 -0.33856058553E+01  0.33856058553E+01  0.00000000000E+00 0. -1.
      -24    2    1    2    0    0  0.00000000000E+00  0.00000000000E+00  0.44439695092E+03  0.45116816263E+03  0.77872080904E+02 0.  0.
       11    1    3    3    0    0 -0.18943170542E+02  0.72799420335E+01  0.29678667567E+02  0.35953644805E+02  0.00000000000E+00 0. -1.
      -12    1    3    3    0    0  0.18943170542E+02 -0.72799420335E+01  0.41471828335E+03  0.41521451782E+03  0.00000000000E+00 0.  1.
</event>
<event>
 5   1  0.6181100E+00  0.7732964E+02  0.7957747E-01  0.1334906E+00
        1   -1    0    0  501    0  0.00000000000E+00  0.00000000000E+00  0.89812571233E+02  0.89812571233E+02  0.00000000000E+00 0. -1.
       -2   -1    0    0    0  501  0.00000000000E+00  0.00000000000E+00 -0.16645425588E+02  0.16645425588E+02  0.00000000000E+00 0.  1.
      -24    2    1    2    0    0  0.00000000000E+00  0.00000000000E+00  0.73167145645E+02  0.10645799682E+03  0.77329644286E+02 0.  0.
       11    1    3    3    0    0  0.27505621548E+02 -0.86175400465E+01  0.72062009069E+02  0.77612849221E+02  0.00000000000E+00 0. -1.
      -12    1    3    3    0    0 -0.27505621548E+02  0.86175400465E+01  0.11051365762E+01  0.28845147600E+02  0.00000000000E+00 0.  1.
</event>
<event>
 5   1  0.6181100E+00  0.7148592E+02  0.7957747E-01  0.1352213E+00
        3   -1    0    0  501    0  0.00000000000E+00  0.00000000000E+00  0.46993262714E+01  0.46993262714E+01  0.00000000000E+00 0. -1.
       -4   -1    0    0    0  501  0.00000000000E+00  0.00000000000E+00 -0.27186007222E+03  0.27186007222E+03  0.00000000000E+00 0.  1.
      -24    2    1    2    0    0  0.00000000000E+00  0.00000000000E+00 -0.26716074595E+03  0.27655939850E+03  0.71485919720E+02 0.  0.
       11    1    3    3    0    0  0.17211901883E+02  0.28955629965E+02 -0.87336381205E+02  0.93607272982E+02  0.00000000000E+00 0. -1.
      -12    1    3    3    0    0 -0.17211901883E+02 -0.28955629965E+02 -0.17982436475E+03  0.18295212551E+03  0.00000000000E+00 0.  1.
</event>
<event>
 5   1  0.6181100E+00  0.8065828E+02  0.7957747E-01  0.1325805E+00
        1   -1    0    0  501    0  0.00000000000E+00  0.00000000000E+00  0.22293802056E+02  0.22293802056E+02  0.00000000000E+00 0. -1.
       -2   -1    0    0    0  501  0.00000000000E+00  0.00000000000E+00 -0.72954789601E+02  0.72954789601E+02  0.00000000000E+00 0.  1.
      -24    2    1    2    0    0  0.00000000000E+00  0.00000000000E+00 -0.50660987545E+02  0.95248591656E+02  0.80658282609E+02 0.  0.
       11    1    3    3    0    0  0.60139044176E+01  0.32848055488E+02  0.13711549551E+01  0.33422176195E+02  0.00000000000E+00 0. -1.
      -12    1    3    3    0    0 -0.60139044176E+01 -0.32848055488E+02 -0.52032142500E+02  0.61826415462E+02  0.00000000000E+00 0.  1.
</event>
<event>
 5   1  0.6181100E+00  0.7703035E+02  0.7957747E-01  0.1335750E+00
        1   -1    0    0  501    0  0.00000000000E+00  0.00000000000E+00  0.11290362271E+03  0.11290362271E+03  0.00000000000E+00 0. -1.
       -2   -1    0    0    0  501  0.00000000000E+00  0.00000000000E+00 -0.13138804374E+02  0.13138804374E+02  0.00000000000E+00 0.  1.
      -24    2    1    2    0    0  0.00000000000E+00  0.00000000000E+00  0.99764818336E+02  0.12604242708E+03  0.77030347575E+02 0.  0.
       11    1    3    3    0    0 -0.47476310162E+01  0.17320346760E+02  0.10563298405E+03  0.10714878315E+03  0.00000000000E+00 0. -1.
      -12    1    3    3    0    0  0.47476310162E+01 -0.17320346760E+02 -0.58681657119E+01  0.18893643931E+02  0.00000000000E+00 0.  1.
</event>
<event>
 5   1  0.6181100E+00  0.7832120E+02  0.7957747E-01  0.1332141E+00
       -2   -1    0    0    0  501  0.00000000000E+00  0.00000000000E+00  0.15397882821E+03  0.15397882821E+03  0.00000000000E+00 0.  1.
        1   -1    0    0  501    0  0.00000000000E+00  0.00000000000E+00 -0.99595035659E+01  0.99595035659E+01  0.00000000000E+00 0. -1.
      -24    2    1    2    0    0  0.00000000000E+00  0.00000000000E+00  0.14401932464E+03  0.16393833177E+03  0.78321202457E+02 0.  0.
       11    1    3    3    0    0  0.13799582581E+02  0.27061136272E+02  0.20277876143E+02  0.36522949451E+02  0.00000000000E+00 0. -1.
      -12    1    3    3    0    0 -0.13799582581E+02 -0.27061136272E+02  0.12374144850E+03  0.12741538232E+03  0.00000000000E+00 0.  1.
</event>
<event>
 5   1  0.6181100E+00  0.8065418E+02  0.7957747E-01  0.1325816E+00
        1   -1    0    0  501    0  0.00000000000E+00  0.00000000000E+00  0.89322566982E+02  0.89322566982E+02  0.00000000000E+00 0. -1.
       -2   -1    0    0    0  501  0.00000000000E+00  0.00000000000E+00 -0.18206756136E+02  0.18206756136E+02  0.00000000000E+00 0.  1.
      -24    2    1    2    0    0  0.00000000000E+00  0.00000000000E+00  0.71115810846E+02  0.10752932312E+03  0.80654180164E+02 0.  0.
       11    1    3    3    0    0 -0.12380300418E+02 -0.76744254949E+01  0.85692896761E+02  0.86922040936E+02  0.00000000000E+00 0. -1.
      -12    1    3    3    0    0  0.12380300418E+02  0.76744254949E+01 -0.14577085915E+02  0.20607282182E+02  0.00000000000E+00 0.  1.
</event>
<event>
 6   2  0.6181100E+00  0.9509042E+02  0.7957747E-01  0.1291416E+00
        1   -1    0    0  502    0  0.00000000000E+00  0.00000000000E+00  0.11569831572E+03  0.11569831572E+03  0.00000000000E+00 0. -1.
       21   -1    0    0  501  502  0.00000000000E+00  0.00000000000E+00 -0.50589628583E+02  0.50589628583E+02  0.00000000000E+00 0. -1.
      -24    2    1    2    0    0  0.44445130956E+02 -0.96809070437E+01  0.11192493170E+02  0.95746852739E+02  0.83505079362E+02 0.  0.
       11    1    3    3    0    0  0.65403206328E+02 -0.13702847488E+02 -0.76739883599E+01  0.67262452561E+02  0.00000000000E+00 0. -1.
      -12    1    3    3    0    0 -0.20958075371E+02  0.40219404441E+01  0.18866481530E+02  0.28484400178E+02  0.00000000000E+00 0.  1.
        2    1    1    2  501    0 -0.44445130956E+02  0.96809070437E+01  0.53916193964E+02  0.70541091560E+02  0.00000000000E+00 0. -1.
</event>
<event>
 5   1  0.6181100E+00  0.8011586E+02  0.7957747E-01  0.1327254E+00
       -4   -1    0    0    0  501  0.00000000000E+00  0.00000000000E+00  0.15258692698E+03  0.15258692698E+03  0.00000000000E+00 0.  1.
        3   -1    0    0  501    0  0.00000000000E+00  0.00000000000E+00 -0.10516220834E+02  0.10516220834E+02  0.00000000000E+00 0. -1.
      -24    2    1    2    0    0  0.00000000000E+00  0.00000000000E+00  0.14207070615E+03  0.16310314782E+03  0.80115861613E+02 0.  0.
       11    1    3    3    0    0 -0.24015038828E+02 -0.23203696557E+02  0.25992898954E+02  0.42317424541E+02  0.00000000000E+00 0. -1.
      -12    1    3    3    0    0  0.24015038828E+02  0.23203696557E+02  0.11607780720E+03  0.12078572328E+03  0.00000000000E+00 0.  1.
</event>
<event>
 4   3  0.6181100E+00  0.2020172E+03  0.7957747E-01  0.1154350E+00
       21   -1    0    0  501  502  0.00000000000E+00  0.00000000000E+00  0.30568251811E+03  0.30568251811E+03  0.00000000000E+00 0. -1.
       21   -1    0    0  502  503  0.00000000000E+00  0.00000000000E+00 -0.14589715479E+03  0.14589715479E+03  0.00000000000E+00 0. -1.
        6    1    1    2  501    0 -0.31420311788E+02  0.99472148695E+02  0.14095310699E+02  0.20250832611E+03  0.17300000000E+03 0. -1.
       -6    1    1    2    0  503  0.31420311788E+02 -0.99472148695E+02  0.14569005262E+03  0.24907134679E+03  0.17300000000E+03 0. -1.
</event>
<event>
 5   1  0.6181100E+00  0.7610024E+02  0.7957747E-01  0.1338400E+00
        1   -1    0    0  501    0  0.00000000000E+00  0.00000000000E+00  0.33218407738E+02  0.33218407738E+02  0.00000000000E+00 0. -1.
       -2   -1    0    0    0  501  0.00000000000E+00  0.00000000000E+00 -0.43584615290E+02  0.43584615290E+02  0.00000000000E+00 0.  1.
      -24    2    1    2    0    0  0.00000000000E+00  0.00000000000E+00 -0.10366207553E+02  0.76803023028E+02  0.76100237103E+02 0.  0.
       11    1    3    3    0    0  0.27624942434E+02 -0.23421067774E+02  0.65920204310E+01  0.36812207126E+02  0.00000000000E+00 0. -1.
      -12    1    3    3    0    0 -0.27624942434E+02  0.23421067774E+02 -0.16958227983E+02  0.39990815902E+02  0.00000000000E+00 0.  1.
</event>
<event>
 6   2  0.6181100E+00  0.9819337E+02  0.7957747E-01  0.1284914E+00
        1   -1    0    0  502    0  0.00000000000E+00  0.00000000000E+00  0.91431792707E+02  0.91431792707E+02  0.00000000000E+00 0. -1.
       -2   -1    0    0    0  501  0.00000000000E+00  0.00000000000E+00 -0.64736495998E+02  0.64736495998E+02  0.00000000000E+00 0.  1.
      -24    2    1    2    0    0 -0.52405033065E+02 -0.11561514725E+02  0.51148288695E+01  0.98326498402E+02  0.82231275682E+02 0.  0.
       11    1    3    3    0    0 -0.55953368890E+02  0.12441060977E+02  0.29035492210E+02  0.64254332899E+02  0.00000000000E+00 0. -1.
      -12    1    3    3    0    0  0.35483358254E+01 -0.24002575701E+02 -0.23920663340E+02  0.34072165503E+02  0.00000000000E+00 0.  1.
       21    1    1    2  502  501  0.52405033065E+02  0.11561514725E+02  0.21580467840E+02  0.57841790303E+02  0.00000000000E+00 0. -1.
</event>
<event>
 5   1  0.6181100E+00  0.7987734E+02  0.7957747E-01  0.1327895E+00
        1   -1    0    0  501    0  0.00000000000E+00  0.00000000000E+00  0.19647048081E+01  0.19647048081E+01  0.00000000000E+00 0. -1.
       -2   -1    0    0    0  501  0.00000000000E+00  0.00000000000E+00 -0.81187641423E+03  0.81187641423E+03  0.00000000000E+00 0.  1.
      -24    2    1    2    0    0  0.00000000000E+00  0.00000000000E+00 -0.80991170942E+03  0.81384111903E+03  0.79877343336E+02 0.  0.
       11    1    3    3    0    0 -0.28770987179E+01 -0.31284696437E+02 -0.15370989981E+03  0.15688767711E+03  0.00000000000E+00 0. -1.
      -12    1    3    3    0    0  0.28770987179E+01  0.31284696437E+02 -0.65620180961E+03  0.65695344193E+03  0.00000000000E+00 0.  1.
</event>
<event>
 5   1  0.6181100E+00  0.8056916E+02  0.7957747E-01  0.1326042E+00
        3   -1    0    0  501    0  0.00000000000E+00  0.00000000000E+00  0.75217902442E+02  0.75217902442E+02  0.00000000000E+00 0. -1.
       -4   -1    0    0    0  501  0.00000000000E+00  0.00000000000E+00 -0.21575281236E+02  0.21575281236E+02  0.00000000000E+00 0.  1.
      -24    2    1    2    0    0  0.00000000000E+00  0.00000000000E+00  0.53642621206E+02  0.96793183678E+02  0.80569160332E+02 0.  0.
       11    1    3    3    0    0  0.10892551092E+02 -0.30121241040E+02  0.56172828883E+02  0.64663154391E+02  0.00000000000E+00 0. -1.
      -12    1    3    3    0    0 -0.10892551092E+02  0.30121241040E+02 -0.25302076769E+01  0.32130029287E+02  0.00000000000E+00 0.  1.
</event>
<event>
 6   2  0.6181100E+00  0.8855199E+02  0.7957747E-01  0.1306077E+00
        1   -1    0    0  502    0  0.00000000000E+00  0.00000000000E+00  0.80556903164E+01  0.80556903164E+01  0.00000000000E+00 0. -1.
       -2   -1    0    0    0  501  0.00000000000E+00  0.00000000000E+00 -0.45492110649E+03  0.45492110649E+03  0.00000000000E+00 0.  1.
      -24    2    1    2    0    0 -0.16548323781E+02  0.27271499325E+02 -0.30673204426E+03  0.31925851815E+03  0.82606735449E+02 0.  0.
       11    1    3    3    0    0 -0.33601058149E+01 -0.27607864908E+02 -0.15267999874E+03  0.15519235333E+03  0.00000000000E+00 0. -1.
      -12    1    3    3    0    0 -0.13188217966E+02  0.54879364233E+02 -0.15405204552E+03  0.16406616483E+03  0.00000000000E+00 0.  1.
       21    1    1    2  502  501  0.16548323781E+02 -0.27271499325E+02 -0.14013337192E+03  0.14371827866E+03  0.00000000000E+00 0. -1.
</event>
<event>
 5   1  0.6181100E+00  0.8013895E+02  0.7957747E-01  0.1327192E+00
       -4   -1    0    0    0  501  0.00000000000E+00  0.00000000000E+00  0.14218387405E+03  0.14218387405E+03  0.00000000000E+00 0.  1.
        3   -1    0    0  501    0  0.00000000000E+00  0.00000000000E+00 -0.11292158152E+02  0.11292158152E+02  0.00000000000E+00 0. -1.
      -24    2    1    2    0    0  0.00000000000E+00  0.00000000000E+00  0.13089171590E+03  0.15347603220E+03  0.80138949142E+02 0.  0.
       11    1    3    3    0    0 -0.40781814913E+01 -0.30835287761E+02  0.17067978929E+02  0.35479042268E+02  0.00000000000E+00 0. -1.
      -12    1    3    3    0    0  0.40781814913E+01  0.30835287761E+02  0.11382373697E+03  0.11799698993E+03  0.00000000000E+00 0.  1.
</event>
<event>
 6   2  0.6181100E+00  0.8681819E+02  0.7957747E-01  0.1310206E+00
       -2   -1    0    0    0  501  0.00000000000E+00  0.00000000000E+00  0.68051264150E+02  0.68051264150E+02  0.00000000000E+00 0.  1.
       21   -1    0    0  501  502  0.00000000000E+00  0.00000000000E+00 -0.55818613037E+02  0.55818613037E+02  0.00000000000E+00 0.  1.
      -24    2    1    2    0    0 -0.27505458114E+02 -0.92195445261E+01  0.27524314695E+02  0.91076810810E+02  0.81828157383E+02 0.  0.
       11    1    3    3    0    0  0.20306862906E+02 -0.28531359875E+02  0.78739521343E+01  0.35894376992E+02  0.00000000000E+00 0. -1.
      -12    1    3    3    0    0 -0.47812321020E+02  0.19311815349E+02  0.19650362560E+02  0.55182433819E+02  0.00000000000E+00 0.  1.
       -1    1    1    2    0  502  0.27505458114E+02  0.92195445261E+01 -0.15291663581E+02  0.32793066377E+02  0.00000000000E+00 0.  1.
</event>
<event>
 5   1  0.6181100E+00  0.7935868E+02  0.7957747E-01  0.1329298E+00
        1   -1    0    0  501    0  0.00000000000E+00  0.00000000000E+00  0.11630345322E+03  0.11630345322E+03  0.00000000000E+00 0. -1.
       -2   -1    0    0    0  501  0.00000000000E+00  0.00000000000E+00 -0.13537430407E+02  0.13537430407E+02  0.00000000000E+00 0.  1.
      -24    2    1    2    0    0  0.00000000000E+00  0.00000000000E+00  0.10276602281E+03  0.12984088362E+03  0.79358677004E+02 0.  0.
       11    1    3    3    0    0 -0.61966457516E+01 -0.26127743141E+02  0.99179001259E+02  0.10274984998E+03  0.00000000000E+00 0. -1.
      -12    1    3    3    0    0  0.61966457516E+01  0.26127743141E+02  0.35870215504E+01  0.27091033643E+02  0.00000000000E+00 0.  1.
</event>
<event>
 6   2  0.6181100E+00  0.8222704E+02  0.7957747E-01  0.1321686E+00
       -4   -1    0    0    0  501  0.00000000000E+00  0.00000000000E+00  0.25108826717E+03  0.25108826717E+03  0.00000000000E+00 0.  1.
       21   -1    0    0  501  502  0.00000000000E+00  0.00000000000E+00 -0.15470943762E+02  0.15470943762E+02  0.00000000000E+00 0.  1.
      -24    2    1    2    0    0 -0.27202604533E+01 -0.21452362732E+02  0.22994305996E+03  0.24420298251E+03  0.79332730679E+02 0.  0.
       11    1    3    3    0    0 -0.52941959135E+01  0.21651058282E+02  0.20262648510E+02  0.30122612100E+02  0.00000000000E+00 0. -1.
      -12    1    3    3    0    0  0.25739354602E+01 -0.43103421014E+02  0.20968041145E+03  0.21408037041E+03  0.00000000000E+00 0.  1.
       -3    1    1    2    0  502  0.27202604533E+01  0.21452362732E+02  0.56742634450E+01  0.22356228424E+02  0.00000000000E+00 0.  1.
</event>
<event>
 5   1  0.6181100E+00  0.8119505E+02  0.7957747E-01  0.1324384E+00
       -2   -1    0    0    0  501  0.00000000000E+00  0.00000000000E+00  0.75243888948E+02  0.75243888948E+02  0.00000000000E+00 0.  1.
        1   -1    0    0  501    0  0.00000000000E+00  0.00000000000E+00 -0.21904224620E+02  0.21904224620E+02  0.00000000000E+00 0. -1.
      -24    2    1    2    0    0  0.00000000000E+00  0.00000000000E+00  0.53339664328E+02  0.97148113568E+02  0.81195050214E+02 0.  0.
       11    1    3    3    0    0 -0.29865169660E+02  0.12118207240E+02 -0.28659735408E+01  0.32357272906E+02  0.00000000000E+00 0. -1.
      -12    1    3    3    0    0  0.29865169660E+02 -0.12118207240E+02  0.56205637869E+02  0.64790840663E+02  0.00000000000E+00 0.  1.
</event>
<event>
 6   2  0.6181100E+00  0.9331722E+02  0.7957747E-01  0.1295258E+00
        1   -1    0    0  502    0  0.00000000000E+00  0.00000000000E+00  0.13111657238E+02  0.13111657238E+02  0.00000000000E+00 0. -1.
       -2   -1    0    0    0  501  0.00000000000E+00  0.00000000000E+00 -0.43068215557E+03  0.43068215557E+03  0.00000000000E+00 0.  1.
      -24    2    1    2    0    0  0.12079299281E+02 -0.17195110475E+02 -0.41146044633E+03  0.42190970828E+03  0.90920414389E+02 0.  0.
       11    1    3    3    0    0  0.41471426863E+02  0.56697349484E+01 -0.10255787636E+03  0.11077067818E+03  0.00000000000E+00 0. -1.
      -12    1    3    3    0    0 -0.29392127582E+02 -0.22864845423E+02 -0.30890256997E+03  0.31113903010E+03  0.00000000000E+00 0.  1.
       21    1    1    2  502  501 -0.12079299281E+02  0.17195110475E+02 -0.61100519988E+01  0.21884104523E+02  0.00000000000E+00 0. -1.
</event>
<event>
 5   1  0.6181100E+00  0.7784212E+02  0.7957747E-01  0.1333471E+00
        1   -1    0    0  501    0  0.00000000000E+00  0.00000000000E+00  0.46666284835E+02  0.46666284835E+02  0.00000000000E+00 0. -1.
       -2   -1    0    0    0  501  0.00000000000E+00  0.00000000000E+00 -0.32461315686E+02  0.32461315686E+02  0.00000000000E+00 0.  1.
      -24    2    1    2    0    0  0.00000000000E+00  0.00000000000E+00  0.14204969149E+02  0.79127600521E+02  0.77842122374E+02 0.  0.
       11    1    3    3    0    0  0.28538476441E+02 -0.18279794797E+02  0.26556273566E+02  0.43056140109E+02  0.00000000000E+00 0. -1.
      -12    1    3    3    0    0 -0.28538476441E+02  0.18279794797E+02 -0.12351304418E+02  0.36071460411E+02  0.00000000000E+00 0.  1.
</event>
<event>
 6   2  0.6181100E+00  0.8370100E+02  0.7957747E-01  0.1317910E+00
        3   -1    0    0  502    0  0.00000000000E+00  0.00000000000E+00  0.15527670569E+02  0.15527670569E+02  0.00000000000E+00 0. -1.
       21   -1    0    0  501  502  0.00000000000E+00  0.00000000000E+00 -0.19948792967E+03  0.19948792967E+03  0.00000000000E+00 0.  1.
      -24    2    1    2    0    0  0.27101456527E+01 -0.23061881058E+02 -0.11488807023E+03  0.14214473828E+03  0.80415562496E+02 0.  0.
       11    1    3    3    0    0  0.11006427087E+02  0.11183198480E+02  0.55612884267E+01  0.16647320938E+02  0.00000000000E+00 0. -1.
      -12    1    3    3    0    0 -0.82962814344E+01 -0.34245079538E+02 -0.12044935866E+03  0.12549741734E+03  0.00000000000E+00 0.  1.
        4    1    1    2  501    0 -0.27101456527E+01  0.23061881058E+02 -0.69072188871E+02  0.72870861961E+02  0.00000000000E+00 0. -1.
</event>
<event>
 5   1  0.6181100E+00  0.7301006E+02  0.7957747E-01  0.1347522E+00
       -2   -1    0    0    0  501  0.00000000000E+00  0.00000000000E+00  0.19661169535E+03  0.19661169535E+03  0.00000000000E+00 0.  1.
        1   -1    0    0  501    0  0.00000000000E+00  0.00000000000E+00 -0.67779144341E+01  0.67779144341E+01  0.00000000000E+00 0. -1.
      -24    2    1    2    0    0  0.00000000000E+00  0.00000000000E+00  0.18983378092E+03  0.20338960978E+03  0.73010060891E+02 0.  0.
       11    1    3    3    0    0  0.19817074600E+02 -0.12700952103E+02  0.17184948110E+02  0.29143662631E+02  0.00000000000E+00 0. -1.
      -12    1    3    3    0    0 -0.19817074600E+02  0.12700952103E+02  0.17264883281E+03  0.17424594715E+03  0.00000000000E+00 0.  1.
</event>
<event>
 5   1  0.6181100E+00  0.6273592E+02  0.7957747E-01  0.1381985E+00
        1   -1    0    0  501    0  0.00000000000E+00  0.00000000000E+00  0.43747708152E+03  0.43747708152E+03  0.00000000000E+00 0. -1.
       -2   -1    0    0    0  501  0.00000000000E+00  0.00000000000E+00 -0.22491438071E+01  0.22491438071E+01  0.00000000000E+00 0.  1.
      -24    2    1    2    0    0  0.00000000000E+00  0.00000000000E+00  0.43522793772E+03  0.43972622533E+03  0.62735918536E+02 0.  0.
       11    1    3    3    0    0 -0.20760877524E+02  0.23046802783E+02  0.18490309104E+03  0.18748685882E+03  0.00000000000E+00 0. -1.
      -12    1    3    3    0    0  0.20760877524E+02 -0.23046802783E+02  0.25032484667E+03  0.25223936651E+03  0.00000000000E+00 0.  1.
</event>
<event>
 5   1  0.6181100E+00  0.8745566E+02  0.7957747E-01  0.1308675E+00
        3   -1    0    0  501    0  0.00000000000E+00  0.00000000000E+00  0.13924678500E+02  0.13924678500E+02  0.00000000000E+00 0. -1.
       -4   -1    0    0    0  501  0.00000000000E+00  0.00000000000E+00 -0.13731901211E+03  0.13731901211E+03  0.00000000000E+00 0.  1.
      -24    2    1    2    0    0  0.00000000000E+00  0.00000000000E+00 -0.12339433361E+03  0.15124369061E+03  0.87455659521E+02 0.  0.
       11    1    3    3    0    0 -0.43454598012E+02  0.13087978756E+01 -0.69828553562E+02  0.82255953783E+02  0.00000000000E+00 0. -1.
      -12    1    3    3    0    0  0.43454598012E+02 -0.13087978756E+01 -0.53565780046E+02  0.68987736825E+02  0.00000000000E+00 0.  1.
</event>
<event>
 4   3  0.6181100E+00  0.2822533E+03  0.7957747E-01  0.1102417E+00
       21   -1    0    0  503  502  0.00000000000E+00  0.00000000000E+00  0.41482189921E+03  0.41482189921E+03  0.00000000000E+00 0. -1.
       21   -1    0    0  501  503  0.00000000000E+00  0.00000000000E+00 -0.19840448619E+03  0.19840448619E+03  0.00000000000E+00 0. -1.
        6    1    1    2  501    0 -0.41680891909E+02 -0.21909045540E+03  0.53340076275E+02  0.28724917430E+03  0.17300000000E+03 0. -1.
       -6    1    1    2    0  502  0.41680891909E+02  0.21909045540E+03  0.16307733675E+03  0.32597721110E+03  0.17300000000E+03 0. -1.
</event>
<event>
 4   3  0.6181100E+00  0.1972182E+03  0.7957747E-01  0.1158273E+00
       21   -1    0    0  503  502  0.00000000000E+00  0.00000000000E+00  0.90636091024E+03  0.90636091024E+03  0.00000000000E+00 0.  1.
       21   -1    0    0  501  503  0.00000000000E+00  0.00000000000E+00 -0.11495337498E+03  0.11495337498E+03  0.00000000000E+00 0.  1.
        6    1    1    2  501    0 -0.62088333692E+02 -0.71491656609E+02 -0.85511930801E+01  0.19740349807E+03  0.17300000000E+03 0.  1.
       -6    1    1    2    0  502  0.62088333692E+02  0.71491656609E+02  0.79995872834E+03  0.82391078715E+03  0.17300000000E+03 0.  1.
</event>
<event>
 5   1  0.6181100E+00  0.7975456E+02  0.7957747E-01  0.1328226E+00
        1   -1    0    0  501    0  0.00000000000E+00  0.00000000000E+00  0.14587378888E+03  0.14587378888E+03  0.00000000000E+00 0. -1.
       -2   -1    0    0    0  501  0.00000000000E+00  0.00000000000E+00 -0.10901186841E+02  0.10901186841E+02  0.00000000000E+00 0.  1.
      -24    2    1    2    0    0  0.00000000000E+00  0.00000000000E+00  0.13497260204E+03  0.15677497573E+03  0.79754559188E+02 0.  0.
       11    1    3    3    0    0  0.70880344124E+01  0.37377844510E+02  0.43991740361E+02  0.58160267469E+02  0.00000000000E+00 0. -1.
      -12    1    3    3    0    0 -0.70880344124E+01 -0.37377844510E+02  0.90980861682E+02  0.98614708256E+02  0.00000000000E+00 0.  1.
</event>
<event>
 4   3  0.6181100E+00  0.1746914E+03  0.7957747E-01  0.1178474E+00
       21   -1    0    0  503  502  0.00000000000E+00  0.00000000000E+00  0.18786231792E+03  0.18786231792E+03  0.00000000000E+00 0.  1.
       21   -1    0    0  501  503  0.00000000000E+00  0.00000000000E+00 -0.29628917669E+03  0.29628917669E+03  0.00000000000E+00 0.  1.
        6    1    1    2  501    0  0.22304396835E+02 -0.95175290047E+01 -0.21691624513E+03  0.27851342315E+03  0.17300000000E+03 0.  1.
       -6    1    1    2    0  502 -0.22304396835E+02  0.95175290047E+01  0.10848938636E+03  0.20563807145E+03  0.17300000000E+03 0.  1.
</event>
<event>
 5   1  0.6181100E+00  0.7939183E+02  0.7957747E-01  0.1329208E+00
       -4   -1    0    0    0  501  0.00000000000E+00  0.00000000000E+00  0.19947353369E+02  0.19947353369E+02  0.00000000000E+00 0.  1.
        3   -1    0    0  501    0  0.00000000000E+00  0.00000000000E+00 -0.78996226764E+02  0.78996226764E+02  0.00000000000E+00 0. -1.
      -24    2    1    2    0    0  0.00000000000E+00  0.00000000000E+00 -0.59048873395E+02  0.98943580132E+02  0.79391829556E+02 0.  0.
       11    1    3    3    0    0 -0.31651205825E+02  0.70171077990E+01 -0.58072623091E+02  0.66509158653E+02  0.00000000000E+00 0. -1.
      -12    1    3    3    0    0  0.31651205825E+02 -0.70171077990E+01 -0.97625030426E+00  0.32434421480E+02  0.00000000000E+00 0.  1.
</event>
<event>
 5   1  0.6181100E+00  0.7793669E+02  0.7957747E-01  0.1333208E+00
       -4   -1    0    0    0  501  0.00000000000E+00  0.00000000000E+00  0.24239945091E+02  0.24239945091E+02  0.00000000000E+00 0.  1.
        3   -1    0    0  501    0  0.00000000000E+00  0.00000000000E+00 -0.62645844027E+02  0.62645844027E+02  0.00000000000E+00 0. -1.
      -24    2    1    2    0    0  0.00000000000E+00  0.00000000000E+00 -0.38405898936E+02  0.86885789118E+02  0.77936687622E+02 0.  0.
       11    1    3    3    0    0  0.25404317960E+02 -0.23016204391E+01 -0.52045009362E+02  0.57959984706E+02  0.00000000000E+00 0. -1.
      -12    1    3    3    0    0 -0.25404317960E+02  0.23016204391E+01  0.13639110425E+02  0.28925804412E+02  0.00000000000E+00 0.  1.
</event>
<event>
 5   1  0.6181100E+00  0.8084102E+02  0.7957747E-01  0.1325320E+00
       -4   -1    0    0    0  501  0.00000000000E+00  0.00000000000E+00  0.41783679739E+02  0.41783679739E+02  0.00000000000E+00 0.  1.
        3   -1    0    0  501    0  0.00000000000E+00  0.00000000000E+00 -0.39101812304E+02  0.39101812304E+02  0.00000000000E+00 0. -1.
      -24    2    1    2    0    0  0.00000000000E+00  0.00000000000E+00  0.26818674355E+01  0.80885492043E+02  0.80841019353E+02 0.  0.
       11    1    3    3    0    0 -0.16220372843E+02  0.11409345137E+02 -0.33899798901E+02  0.39274292065E+02  0.00000000000E+00 0. -1.
      -12    1    3    3    0    0  0.16220372843E+02 -0.11409345137E+02  0.36581666337E+02  0.41611199978E+02  0.00000000000E+00 0.  1.
</event>
<event>
 5   1  0.6181100E+00  0.8188801E+02  0.7957747E-01  0.1322567E+00
        1   -1    0    0  501    0  0.00000000000E+00  0.00000000000E+00  0.15737943799E+02  0.15737943799E+02  0.00000000000E+00 0. -1.
       -2   -1    0    0    0  501  0.00000000000E+00  0.00000000000E+00 -0.10652036984E+03  0.10652036984E+03  0.00000000000E+00 0.  1.
      -24    2    1    2    0    0  0.00000000000E+00  0.00000000000E+00 -0.90782426039E+02  0.12225831364E+03  0.81888011186E+02 0.  0.
       11    1    3    3    0    0 -0.39602416337E+02 -0.96705098588E+01 -0.51084485700E+02  0.65356673874E+02  0.00000000000E+00 0. -1.
      -12    1    3    3    0    0  0.39602416337E+02  0.96705098588E+01 -0.39697940339E+02  0.56901639763E+02  0.00000000000E+00 0.  1.
</event>
<event>
 6   2  0.6181100E+00  0.3318327E+03  0.7957747E-01  0.1078931E+00
       21   -1    0    0  501  502  0.00000000000E+00  0.00000000000E+00  0.95146475379E+03  0.95146475379E+03  0.00000000000E+00 0. -1.
        1   -1    0    0  502    0  0.00000000000E+00  0.00000000000E+00 -0.21706407717E+03  0.21706407717E+03  0.00000000000E+00 0. -1.
      -24    2    1    2    0    0  0.93142911279E+02 -0.30797117330E+03 -0.35864551158E+02  0.33376517182E+03  0.81185456727E+02 0.  0.
       11    1    3    3    0    0  0.51829795300E+02 -0.10042494714E+03 -0.45740583696E+02  0.12191676950E+03  0.00000000000E+00 0. -1.
      -12    1    3    3    0    0  0.41313115979E+02 -0.20754622616E+03  0.98760325385E+01  0.21184840232E+03  0.00000000000E+00 0.  1.
        2    1    1    2  501    0 -0.93142911279E+02  0.30797117330E+03  0.77026522778E+03  0.83476365915E+03  0.00000000000E+00 0. -1.
</event>
<event>
 5   1  0.6181100E+00  0.6714462E+02  0.7957747E-01  0.1366337E+00
        3   -1    0    0  501    0  0.00000000000E+00  0.00000000000E+00  0.48763217290E+02  0.48763217290E+02  0.00000000000E+00 0. -1.
       -4   -1    0    0    0  501  0.00000000000E+00  0.00000000000E+00 -0.23113732096E+02  0.23113732096E+02  0.00000000000E+00 0.  1.
      -24    2    1    2    0    0  0.00000000000E+00  0.00000000000E+00  0.25649485194E+02  0.71876949386E+02  0.67144618268E+02 0.  0.
       11    1    3    3    0    0 -0.27859007710E+01  0.32537005763E+02  0.21163631809E+02  0.38914230025E+02  0.00000000000E+00 0. -1.
      -12    1    3    3    0    0  0.27859007710E+01 -0.32537005763E+02  0.44858533856E+01  0.32962719361E+02  0.00000000000E+00 0.  1.
</event>
<event>
 5   1  0.6181100E+00  0.7873094E+02  0.7957747E-01  0.1331012E+00
       -2   -1    0    0    0  501  0.00000000000E+00  0.00000000000E+00  0.30935850412E+02  0.30935850412E+02  0.00000000000E+00 0.  1.
        1   -1    0    0  501    0  0.00000000000E+00  0.00000000000E+00 -0.50092055159E+02  0.50092055159E+02  0.00000000000E+00 0. -1.
      -24    2    1    2    0    0  0.00000000000E+00  0.00000000000E+00 -0.19156204748E+02  0.81027905571E+02  0.78730942461E+02 0.  0.
       11    1    3    3    0    0  0.32148519215E+02  0.15266676697E+02 -0.26892776162E+02  0.44607399776E+02  0.00000000000E+00 0. -1.
      -12    1    3    3    0    0 -0.32148519215E+02 -0.15266676697E+02  0.77365714141E+01  0.36420505795E+02  0.00000000000E+00 0.  1.
</event>
<event>
 5   1  0.6181100E+00  0.7990556E+02  0.7957747E-01  0.1327819E+00
        1   -1    0    0  501    0  0.00000000000E+00  0.00000000000E+00  0.18612337574E+02  0.18612337574E+02  0.00000000000E+00 0. -1.
       -2   -1    0    0    0  501  0.00000000000E+00  0.00000000000E+00 -0.85761636057E+02  0.85761636057E+02  0.00000000000E+00 0.  1.
      -24    2    1    2    0    0  0.00000000000E+00  0.00000000000E+00 -0.67149298482E+02  0.10437397363E+03  0.79905557284E+02 0.  0.
       11    1    3    3    0    0  0.20202219806E+02  0.22838763427E+02  0.14714373641E+00  0.30491973555E+02  0.00000000000E+00 0. -1.
      -12    1    3    3    0    0 -0.20202219806E+02 -0.22838763427E+02 -0.67296442219E+02  0.73882000076E+02  0.00000000000E+00 0.  1.
</event>
<event>
 5   1  0.6181100E+00  0.8047321E+02  0.7957747E-01  0.1326298E+00
       -4   -1    0    0    0  501  0.00000000000E+00  0.00000000000E+00  0.11857630651E+03  0.11857630651E+03  0.00000000000E+00 0.  1.
        3   -1    0    0  501    0  0.00000000000E+00  0.00000000000E+00 -0.13653523969E+02  0.13653523969E+02  0.00000000000E+00 0. -1.
      -24    2    1    2    0    0  0.00000000000E+00  0.00000000000E+00  0.10492278254E+03  0.13222983048E+03  0.80473211518E+02 0.  0.
       11    1    3    3    0    0 -0.14223383200E+02  0.23511692370E+02  0.41660931219E+01  0.27793176135E+02  0.00000000000E+00 0. -1.
      -12    1    3    3    0    0  0.14223383200E+02 -0.23511692370E+02  0.10075668942E+03  0.10443665434E+03  0.00000000000E+00 0.  1.
</event>
<event>
 5   1  0.6181100E+00  0.7849841E+02  0.7957747E-01  0.1331652E+00
       -2   -1    0    0    0  501  0.00000000000E+00  0.00000000000E+00  0.31356351349E+01  0.31356351349E+01  0.00000000000E+00 0.  1.
        1   -1    0    0  501    0  0.00000000000E+00  0.00000000000E+00 -0.49128799575E+03  0.49128799575E+03  0.00000000000E+00 0. -1.
      -24    2    1    2    0    0  0.00000000000E+00  0.00000000000E+00 -0.48815236062E+03  0.49442363089E+03  0.78498405101E+02 0.  0.
       11    1    3    3    0    0 -0.21117897408E+02  0.33018353428E+02 -0.23098094632E+03  0.23428268143E+03  0.00000000000E+00 0. -1.
      -12    1    3    3    0    0  0.21117897408E+02 -0.33018353428E+02 -0.25717141429E+03  0.26014094946E+03  0.00000000000E+00 0.  1.
</event>
<event>
 5   1  0.6181100E+00  0.8149229E+02  0.7957747E-01  0.1323602E+00
        1   -1    0    0  501    0  0.00000000000E+00  0.00000000000E+00  0.18123069150E+02  0.18123069150E+02  0.00000000000E+00 0. -1.
       -2   -1    0    0    0  501  0.00000000000E+00  0.00000000000E+00 -0.91609674312E+02  0.91609674312E+02  0.00000000000E+00 0.  1.
      -24    2    1    2    0    0  0.00000000000E+00  0.00000000000E+00 -0.73486605162E+02  0.10973274346E+03  0.81492293192E+02 0.  0.
       11    1    3    3    0    0 -0.30895954310E+02  0.92383150121E+01 -0.32054467812E+01  0.32406501602E+02  0.00000000000E+00 0. -1.
      -12    1    3    3    0    0  0.30895954310E+02 -0.92383150121E+01 -0.70281158380E+02  0.77326241861E+02  0.00000000000E+00 0.  1.
</event>
<event>
 5   1  0.6181100E+00  0.8289828E+02  0.7957747E-01  0.1319956E+00
       -2   -1    0    0    0  501  0.00000000000E+00  0.00000000000E+00  0.13530743375E+03  0.13530743375E+03  0.00000000000E+00 0.  1.
        1   -1    0    0  501    0  0.00000000000E+00  0.00000000000E+00 -0.12697240467E+02  0.12697240467E+02  0.00000000000E+00 0. -1.
      -24    2    1    2    0    0  0.00000000000E+00  0.00000000000E+00  0.12261019328E+03  0.14800467422E+03  0.82898275575E+02 0.  0.
       11    1    3    3    0    0  0.33033514825E+02  0.46176294161E+01  0.17372652449E+02  0.37607773881E+02  0.00000000000E+00 0. -1.
      -12    1    3    3    0    0 -0.33033514825E+02 -0.46176294161E+01  0.10523754084E+03  0.11039690034E+03  0.00000000000E+00 0.  1.
</event>
<event>
 5   1  0.6181100E+00  0.7690649E+02  0.7957747E-01  0.1336100E+00
       -2   -1    0    0    0  501  0.00000000000E+00  0.00000000000E+00  0.53102295657E+01  0.53102295657E+01  0.00000000000E+00 0.  1.
        1   -1    0    0  501    0  0.00000000000E+00  0.00000000000E+00 -0.27845351991E+03  0.27845351991E+03  0.00000000000E+00 0. -1.
      -24    2    1    2    0    0  0.00000000000E+00  0.00000000000E+00 -0.27314329035E+03  0.28376374948E+03  0.76906491640E+02 0.  0.
       11    1    3    3    0    0  0.32549627782E+02  0.20411986986E+02 -0.14243428224E+03  0.14752509020E+03  0.00000000000E+00 0. -1.
      -12    1    3    3    0    0 -0.32549627782E+02 -0.20411986986E+02 -0.13070900811E+03  0.13623865928E+03  0.00000000000E+00 0.  1.
</event>
<event>
 6   2  0.6181100E+00  0.8565728E+02  0.7957747E-01  0.1313032E+00
        3   -1    0    0  502    0  0.00000000000E+00  0.00000000000E+00  0.25856048305E+03  0.25856048305E+03  0.00000000000E+00 0. -1.
       21   -1    0    0  501  502  0.00000000000E+00  0.00000000000E+00 -0.12928106351E+02  0.12928106351E+02  0.00000000000E+00 0. -1.
      -24    2    1    2    0    0  0.16615757410E+02 -0.23944755243E+02  0.19657107053E+03  0.21442330695E+03  0.80546471665E+02 0.  0.
       11    1    3    3    0    0  0.23237442929E+02 -0.37587850179E+02  0.19408927900E+03  0.19905645796E+03  0.00000000000E+00 0. -1.
      -12    1    3    3    0    0 -0.66216855192E+01  0.13643094936E+02  0.24817915266E+01  0.15366848985E+02  0.00000000000E+00 0.  1.
        4    1    1    2  501    0 -0.16615757410E+02  0.23944755243E+02  0.49061306178E+02  0.57065282456E+02  0.00000000000E+00 0. -1.
</event>
<event>
 4   3  0.6181100E+00  0.1732113E+03  0.7957747E-01  0.1179918E+00
       21   -1    0    0  501  502  0.00000000000E+00  0.00000000000E+00  0.20882352242E+03  0.20882352242E+03  0.00000000000E+00 0.  1.
       21   -1    0    0  502  503  0.00000000000E+00  0.00000000000E+00 -0.28097811180E+03  0.28097811180E+03  0.00000000000E+00 0.  1.
        6    1    1    2  501    0 -0.82698227878E+01 -0.21789336980E+01  0.13512066559E+03  0.21968097776E+03  0.17300000000E+03 0.  1.
       -6    1    1    2    0  503  0.82698227878E+01  0.21789336980E+01 -0.20727525498E+03  0.27012065646E+03  0.17300000000E+03 0.  1.
</event>
<event>
 5   1  0.6181100E+00  0.8365943E+02  0.7957747E-01  0.1318015E+00
        1   -1    0    0  501    0  0.00000000000E+00  0.00000000000E+00  0.46432277943E+03  0.46432277943E+03  0.00000000000E+00 0. -1.
       -2   -1    0    0    0  501  0.00000000000E+00  0.00000000000E+00 -0.37683376539E+01  0.37683376539E+01  0.00000000000E+00 0.  1.
      -24    2    1    2    0    0  0.00000000000E+00  0.00000000000E+00  0.46055444178E+03  0.46809111708E+03  0.83659428956E+02 0.  0.
       11    1    3    3    0    0 -0.10983212744E+02  0.40137131006E+02  0.20646982145E+03  0.21062147901E+03  0.00000000000E+00 0. -1.
      -12    1    3    3    0    0  0.10983212744E+02 -0.40137131006E+02  0.25408462032E+03  0.25746963808E+03  0.00000000000E+00 0.  1.
</event>
<event>
 5   1  0.6181100E+00  0.8160101E+02  0.7957747E-01  0.1323317E+00
       -2   -1    0    0    0  501  0.00000000000E+00  0.00000000000E+00  0.39809271140E+02  0.39809271140E+02  0.00000000000E+00 0.  1.
        1   -1    0    0  501    0  0.00000000000E+00  0.00000000000E+00 -0.41816421385E+02  0.41816421385E+02  0.00000000000E+00 0. -1.
      -24    2    1    2    0    0  0.00000000000E+00  0.00000000000E+00 -0.20071502445E+01  0.81625692525E+02  0.81601011195E+02 0.  0.
       11    1    3    3    0    0 -0.16674728255E+02 -0.37196138942E+02  0.75250205036E+00  0.40769664874E+02  0.00000000000E+00 0. -1.
      -12    1    3    3    0    0  0.16674728255E+02  0.37196138942E+02 -0.27596522949E+01  0.40856027651E+02  0.00000000000E+00 0.  1.
</event>
<event>
 6   2  0.6181100E+00  0.7781685E+02  0.7957747E-01  0.1333542E+00
       21   -1    0    0  501  502  0.00000000000E+00  0.00000000000E+00  0.34452663617E+03  0.34452663617E+03  0.00000000000E+00 0.  1.
        3   -1    0    0  502    0  0.00000000000E+00  0.00000000000E+00 -0.80335707063E+01  0.80335707063E+01  0.00000000000E+00 0. -1.
      -24    2    1    2    0    0  0.85006309048E+01  0.19892615337E+02  0.20448156073E+03  0.21878795919E+03  0.74749485178E+02 0.  0.
       11    1    3    3    0    0 -0.11932613517E+02  0.28402139915E+02  0.30317124840E+02  0.43222643090E+02  0.00000000000E+00 0. -1.
      -12    1    3    3    0    0  0.20433244422E+02 -0.85095245778E+01  0.17416443589E+03  0.17556531610E+03  0.00000000000E+00 0.  1.
        4    1    1    2  501    0 -0.85006309048E+01 -0.19892615337E+02  0.13201150473E+03  0.13377224768E+03  0.00000000000E+00 0. -1.
</event>
<event>
 6   2  0.6181100E+00  0.8580040E+02  0.7957747E-01  0.1312681E+00
       21   -1    0    0  501  502  0.00000000000E+00  0.00000000000E+00  0.56656527214E+02  0.56656527214E+02  0.00000000000E+00 0. -1.
        3   -1    0    0  502    0  0.00000000000E+00  0.00000000000E+00 -0.17157868247E+03  0.17157868247E+03  0.00000000000E+00 0. -1.
      -24    2    1    2    0    0 -0.22459207722E+02  0.13958539365E+02 -0.15678109901E+03  0.17872331207E+03  0.81623847227E+02 0.  0.
       11    1    3    3    0    0 -0.52393176211E+02  0.13700078365E+02 -0.83044637726E+02  0.99142064310E+02  0.00000000000E+00 0. -1.
      -12    1    3    3    0    0  0.29933968489E+02  0.25846099949E+00 -0.73736461287E+02  0.79581247758E+02  0.00000000000E+00 0.  1.
        4    1    1    2  501    0  0.22459207722E+02 -0.13958539365E+02  0.41858943760E+02  0.49511897614E+02  0.00000000000E+00 0. -1.
</event>
<event>
 6   2  0.6181100E+00  0.8474387E+02  0.7957747E-01  0.1315291E+00
       21   -1    0    0  501  502  0.00000000000E+00  0.00000000000E+00  0.29804980615E+02  0.29804980615E+02  0.00000000000E+00 0. -1.
       -4   -1    0    0    0  501  0.00000000000E+00  0.00000000000E+00 -0.10895890684E+03  0.10895890684E+03  0.00000000000E+00 0.  1.
      -24    2    1    2    0    0  0.29173087703E+02  0.13472725546E+01 -0.57565669586E+02  0.10244671501E+03  0.79552742961E+02 0.  0.
       11    1    3    3    0    0  0.49571088785E+02  0.98054487459E+01 -0.12186918460E+02  0.51980387166E+02  0.00000000000E+00 0. -1.
      -12    1    3    3    0    0 -0.20398001081E+02 -0.84581761913E+01 -0.45378751126E+02  0.50466327847E+02  0.00000000000E+00 0.  1.
       -3    1    1    2    0  502 -0.29173087703E+02 -0.13472725546E+01 -0.21588256639E+02  0.36317172442E+02  0.00000000000E+00 0.  1.
</event>
<event>
 5   2  0.6181100E+00  0.1378663E+03  0.7957747E-01  0.1220005E+00
       -2   -1    0    0    0  501  0.00000000000E+00  0.00000000000E+00  0.13414195628E+03  0.13414195628E+03  0.00000000000E+00 0.  1.
       21   -1    0    0  501  502  0.00000000000E+00  0.00000000000E+00 -0.10441057827E+03  0.10441057827E+03  0.00000000000E+00 0.  1.
       11    1    1    2    0    0  0.33982082308E+02  0.34741276818E+02 -0.47485322702E+00  0.48600038257E+02  0.00000000000E+00 0. -1.
      -12    1    1    2    0    0 -0.30672437638E+02 -0.63875254393E+02  0.95185554481E+02  0.11866396393E+03  0.00000000000E+00 0.  1.
       -1    1    1    2    0  502 -0.33096446699E+01  0.29133977575E+02 -0.64979323245E+02  0.71288532363E+02  0.00000000000E+00 0.  1.
</event>
<event>
 5   1  0.6181100E+00  0.8066613E+02  0.7957747E-01  0.1325784E+00
       -2   -1    0    0    0  501  0.00000000000E+00  0.00000000000E+00  0.80564275399E+02  0.80564275399E+02  0.00000000000E+00 0.  1.
        1   -1    0    0  501    0  0.00000000000E+00  0.00000000000E+00 -0.20192029625E+02  0.20192029625E+02  0.00000000000E+00 0. -1.
      -24    2    1    2    0    0  0.00000000000E+00  0.00000000000E+00  0.60372245774E+02  0.10075630502E+03  0.80666132560E+02 0.  0.
       11    1    3    3    0    0 -0.13243344062E+02 -0.35867008578E+02  0.14145253992E+02  0.40766612280E+02  0.00000000000E+00 0. -1.
      -12    1    3    3    0    0  0.13243344062E+02  0.35867008578E+02  0.46226991782E+02  0.59989692744E+02  0.00000000000E+00 0.  1.
</event>
<event>
 6   2  0.6181100E+00  0.8372953E+02  0.7957747E-01  0.1317838E+00
       -2   -1    0    0    0  501  0.00000000000E+00  0.00000000000E+00  0.31561204297E+03  0.31561204297E+03  0.00000000000E+00 0.  1.
       21   -1    0    0  501  502  0.00000000000E+00  0.00000000000E+00 -0.89993342460E+01  0.89993342460E+01  0.00000000000E+00 0. -1.
      -24    2    1    2    0    0  0.21908927513E+02 -0.41269082260E+01  0.25484005267E+03  0.26824258806E+03  0.80706884013E+02 0.  0.
       11    1    3    3    0    0  0.51543978511E+02  0.71124823057E+01  0.15739543158E+03  0.16577301049E+03  0.00000000000E+00 0. -1.
      -12    1    3    3    0    0 -0.29635050999E+02 -0.11239390532E+02  0.97444621092E+02  0.10246957757E+03  0.00000000000E+00 0.  1.
       -1    1    1    2    0  502 -0.21908927513E+02  0.41269082260E+01  0.51772656059E+02  0.56368789162E+02  0.00000000000E+00 0.  1.
</event>
<event>
 5   1  0.6181100E+00  0.8094097E+02  0.7957747E-01  0.1325055E+00
        3   -1    0    0  501    0  0.00000000000E+00  0.00000000000E+00  0.40600956091E+01  0.40600956091E+01  0.00000000000E+00 0. -1.
       -4   -1    0    0    0  501  0.00000000000E+00  0.00000000000E+00 -0.40340437806E+03  0.40340437806E+03  0.00000000000E+00 0.  1.
      -24    2    1    2    0    0  0.00000000000E+00  0.00000000000E+00 -0.39934428245E+03  0.40746447367E+03  0.80940974644E+02 0.  0.
       11    1    3    3    0    0  0.91026644265E+01 -0.38440969430E+02 -0.15541397592E+03  0.16035607423E+03  0.00000000000E+00 0. -1.
      -12    1    3    3    0    0 -0.91026644265E+01  0.38440969430E+02 -0.24393030653E+03  0.24710839944E+03  0.00000000000E+00 0.  1.
</event>
<event>
 5   1  0.6181100E+00  0.7974410E+02  0.7957747E-01  0.1328254E+00
       -2   -1    0    0    0  501  0.00000000000E+00  0.00000000000E+00  0.88380716011E+01  0.88380716011E+01  0.00000000000E+00 0.  1.
        1   -1    0    0  501    0  0.00000000000E+00  0.00000000000E+00 -0.17987866017E+03  0.17987866017E+03  0.00000000000E+00 0. -1.
      -24    2    1    2    0    0  0.00000000000E+00  0.00000000000E+00 -0.17104058857E+03  0.18871673178E+03  0.79744102682E+02 0.  0.
       11    1    3    3    0    0 -0.28566685612E+02 -0.19478550563E+02 -0.13251309056E+03  0.13694958426E+03  0.00000000000E+00 0. -1.
      -12    1    3    3    0    0  0.28566685612E+02  0.19478550563E+02 -0.38527498017E+02  0.51767147520E+02  0.00000000000E+00 0.  1.
</event>
<event>
 5   1  0.6181100E+00  0.8006920E+02  0.7957747E-01  0.1327379E+00
        3   -1    0    0  501    0  0.00000000000E+00  0.00000000000E+00  0.10802570310E+02  0.10802570310E+02  0.00000000000E+00 0. -1.
       -4   -1    0    0    0  501  0.00000000000E+00  0.00000000000E+00 -0.14836922938E+03  0.14836922938E+03  0.00000000000E+00 0.  1.
      -24    2    1    2    0    0  0.00000000000E+00  0.00000000000E+00 -0.13756665907E+03  0.15917179969E+03  0.80069195878E+02 0.  0.
       11    1    3    3    0    0 -0.57044741309E+01  0.33765749397E+02 -0.27555879035E+02  0.43954446042E+02  0.00000000000E+00 0. -1.
      -12    1    3    3    0    0  0.57044741309E+01 -0.33765749397E+02 -0.11001078003E+03  0.11521735365E+03  0.00000000000E+00 0.  1.
</event>
<event>
 5   1  0.6181100E+00  0.8121797E+02  0.7957747E-01  0.1324323E+00
        1   -1    0    0  501    0  0.00000000000E+00  0.00000000000E+00  0.15589424532E+03  0.15589424532E+03  0.00000000000E+00 0. -1.
       -2   -1    0    0    0  501  0.00000000000E+00  0.00000000000E+00 -0.10578259125E+02  0.10578259125E+02  0.00000000000E+00 0.  1.
      -24    2    1    2    0    0  0.00000000000E+00  0.00000000000E+00  0.14531598620E+03  0.16647250445E+03  0.81217971488E+02 0.  0.
       11    1    3    3    0    0 -0.18617140746E+02  0.24644354462E+02  0.12669967846E+03  0.13040993313E+03  0.00000000000E+00 0. -1.
      -12    1    3    3    0    0  0.18617140746E+02 -0.24644354462E+02  0.18616307734E+02  0.36062571317E+02  0.00000000000E+00 0.  1.
</event>
<event>
 5   1  0.6181100E+00  0.8750951E+02  0.7957747E-01  0.1308547E+00
        1   -1    0    0  501    0  0.00000000000E+00  0.00000000000E+00  0.51947386678E+02  0.51947386678E+02  0.00000000000E+00 0. -1.
       -2   -1    0    0    0  501  0.00000000000E+00  0.00000000000E+00 -0.36854182282E+02  0.36854182282E+02  0.00000000000E+00 0.  1.
      -24    2    1    2    0    0  0.00000000000E+00  0.00000000000E+00  0.15093204396E+02  0.88801568960E+02  0.87509507088E+02 0.  0.
       11    1    3    3    0    0  0.89642604989E+01  0.18181994920E+02  0.46894565012E+02  0.51088581241E+02  0.00000000000E+00 0. -1.
      -12    1    3    3    0    0 -0.89642604989E+01 -0.18181994920E+02 -0.31801360617E+02  0.37712987718E+02  0.00000000000E+00 0.  1.
</event>
<event>
 5   1  0.6181100E+00  0.8069658E+02  0.7957747E-01  0.1325703E+00
       -2   -1    0    0    0  501  0.00000000000E+00  0.00000000000E+00  0.17162220574E+03  0.17162220574E+03  0.00000000000E+00 0.  1.
        1   -1    0    0  501    0  0.00000000000E+00  0.00000000000E+00 -0.94858605149E+01  0.94858605149E+01  0.00000000000E+00 0. -1.
      -24    2    1    2    0    0  0.00000000000E+00  0.00000000000E+00  0.16213634523E+03  0.18110806626E+03  0.80696575019E+02 0.  0.
       11    1    3    3    0    0 -0.21923095679E+01 -0.24992293086E+02  0.10147882011E+02  0.27062897928E+02  0.00000000000E+00 0. -1.
      -12    1    3    3    0    0  0.21923095679E+01  0.24992293086E+02  0.15198846322E+03  0.15404516833E+03  0.00000000000E+00 0.  1.
</event>
<event>
 6   2  0.6181100E+00  0.8536195E+02  0.7957747E-01  0.1313759E+00
       21   -1    0    0  501  502  0.00000000000E+00  0.00000000000E+00  0.10992069805E+02  0.10992069805E+02  0.00000000000E+00 0. -1.
        3   -1    0    0  502    0  0.00000000000E+00  0.00000000000E+00 -0.41004834388E+03  0.41004834388E+03  0.00000000000E+00 0. -1.
      -24    2    1    2    0    0 -0.10318738650E+02  0.22403539002E+02 -0.38106892869E+03  0.39051272918E+03  0.81720672486E+02 0.  0.
       11    1    3    3    0    0 -0.25886616950E+02  0.48017479974E+02 -0.27097897728E+03  0.27641526993E+03  0.00000000000E+00 0. -1.
      -12    1    3    3    0    0  0.15567878301E+02 -0.25613940972E+02 -0.11008995141E+03  0.11409745925E+03  0.00000000000E+00 0.  1.
        4    1    1    2  501    0  0.10318738650E+02 -0.22403539002E+02 -0.17987345383E+02  0.30527684502E+02  0.00000000000E+00 0. -1.
</event>
<event>
 5   1  0.6181100E+00  0.6652398E+02  0.7957747E-01  0.1368456E+00
        1   -1    0    0  501    0  0.00000000000E+00  0.00000000000E+00  0.26230989452E+02  0.26230989452E+02  0.00000000000E+00 0. -1.
       -2   -1    0    0    0  501  0.00000000000E+00  0.00000000000E+00 -0.42177595684E+02  0.42177595684E+02  0.00000000000E+00 0.  1.
      -24    2    1    2    0    0  0.00000000000E+00  0.00000000000E+00 -0.15946606232E+02  0.68408585136E+02  0.66523982668E+02 0.  0.
       11    1    3    3    0    0  0.22879492437E+02  0.23911775875E+02 -0.45448039076E+01  0.33405081084E+02  0.00000000000E+00 0. -1.
      -12    1    3    3    0    0 -0.22879492437E+02 -0.23911775875E+02 -0.11401802324E+02  0.35003504052E+02  0.00000000000E+00 0.  1.
</event>
<event>
 4   3  0.6181100E+00  0.2505234E+03  0.7957747E-01  0.1120390E+00
       21   -1    0    0  503  502  0.00000000000E+00  0.00000000000E+00  0.14180654733E+03  0.14180654733E+03  0.00000000000E+00 0. -1.
       21   -1    0    0  501  503  0.00000000000E+00  0.00000000000E+00 -0.44361605589E+03  0.44361605589E+03  0.00000000000E+00 0.  1.
        6    1    1    2  501    0 -0.12965124438E+03 -0.12658416769E+03 -0.13681950122E+03  0.28544977245E+03  0.17300000000E+03 0. -1.
       -6    1    1    2    0  502  0.12965124438E+03  0.12658416769E+03 -0.16499000734E+03  0.29997283077E+03  0.17300000000E+03 0. -1.
</event>
<event>
 6   2  0.6181100E+00  0.8303321E+02  0.7957747E-01  0.1319610E+00
       -2   -1    0    0    0  501  0.00000000000E+00  0.00000000000E+00  0.48952694529E+02  0.48952694529E+02  0.00000000000E+00 0.  1.
       21   -1    0    0  501  502  0.00000000000E+00  0.00000000000E+00 -0.97202262433E+02  0.97202262433E+02  0.00000000000E+00 0.  1.
      -24    2    1    2    0    0  0.12441568518E+02  0.28480751171E+02  0.64067501811E+01  0.83280010274E+02  0.76997193773E+02 0.  0.
       11    1    3    3    0    0 -0.28610883661E+02  0.11066957667E+02 -0.14615080800E+02  0.33980300214E+02  0.00000000000E+00 0. -1.
      -12    1    3    3    0    0  0.41052452179E+02  0.17413793504E+02  0.21021830981E+02  0.49299710059E+02  0.00000000000E+00 0.  1.
       -1    1    1    2    0  502 -0.12441568518E+02 -0.28480751171E+02 -0.54656318085E+02  0.62874946689E+02  0.00000000000E+00 0.  1.
</event>
<event>
 6   2  0.6181100E+00  0.8527133E+02  0.7957747E-01  0.1313983E+00
        1   -1    0    0  502    0  0.00000000000E+00  0.00000000000E+00  0.13817574471E+03  0.13817574471E+03  0.00000000000E+00 0. -1.
       -2   -1    0    0    0  501  0.00000000000E+00  0.00000000000E+00 -0.25492030224E+02  0.25492030224E+02  0.00000000000E+00 0.  1.
      -24    2    1    2    0    0  0.74700893157E+01 -0.28863742044E+02  0.99579724105E+02  0.13110042314E+03  0.79889183587E+02 0.  0.
       11    1    3    3    0    0 -0.22569492458E+02 -0.19167577324E+02  0.94623150227E+02  0.99147963010E+02  0.00000000000E+00 0. -1.
      -12    1    3    3    0    0  0.30039581774E+02 -0.96961647209E+01  0.49565738781E+01  0.31952460125E+02  0.00000000000E+00 0.  1.
       21    1    1    2  502  501 -0.74700893157E+01  0.28863742044E+02  0.13103990379E+02  0.32567351797E+02  0.00000000000E+00 0. -1.
</event>
<event>
 5   1  0.6181100E+00  0.8368069E+02  0.7957747E-01  0.1317961E+00
        1   -1    0    0  501    0  0.00000000000E+00  0.00000000000E+00  0.99117469034E+01  0.99117469034E+01  0.00000000000E+00 0. -1.
       -2   -1    0    0    0  501  0.00000000000E+00  0.00000000000E+00 -0.17662019548E+03  0.17662019548E+03  0.00000000000E+00 0.  1.
      -24    2    1    2    0    0  0.00000000000E+00  0.00000000000E+00 -0.16670844858E+03  0.18653194239E+03  0.83680694922E+02 0.  0.
       11    1    3    3    0    0 -0.17564682395E+02  0.15705780761E+02 -0.62835582424E+01  0.24385912350E+02  0.00000000000E+00 0. -1.
      -12    1    3    3    0    0  0.17564682395E+02 -0.15705780761E+02 -0.16042489034E+03  0.16214603004E+03  0.00000000000E+00 0.  1.
</event>
<event>
 5   1  0.6181100E+00  0.7939629E+02  0.7957747E-01  0.1329196E+00
        3   -1    0    0  501    0  0.00000000000E+00  0.00000000000E+00  0.22589251391E+01  0.22589251391E+01  0.00000000000E+00 0. -1.
       -4   -1    0    0    0  501  0.00000000000E+00  0.00000000000E+00 -0.69765156031E+03  0.69765156031E+03  0.00000000000E+00 0.  1.
      -24    2    1    2    0    0  0.00000000000E+00  0.00000000000E+00 -0.69539263517E+03  0.69991048545E+03  0.79396288273E+02 0.  0.
       11    1    3    3    0    0  0.84445041110E+01 -0.55769614598E+01 -0.93029327629E+01  0.13746152436E+02  0.00000000000E+00 0. -1.
      -12    1    3    3    0    0 -0.84445041110E+01  0.55769614598E+01 -0.68608970241E+03  0.68616433302E+03  0.00000000000E+00 0.  1.
</event>
<event>
 4   3  0.6181100E+00  0.2706079E+03  0.7957747E-01  0.1108701E+00
       21   -1    0    0  503  502  0.00000000000E+00  0.00000000000E+00  0.17623923304E+03  0.17623923304E+03  0.00000000000E+00 0. -1.
       21   -1    0    0  501  503  0.00000000000E+00  0.00000000000E+00 -0.46370055106E+03  0.46370055106E+03  0.00000000000E+00 0. -1.
        6    1    1    2  501    0  0.61340494615E+02 -0.19883901763E+03 -0.24688449456E+03  0.36630665414E+03  0.17300000000E+03 0. -1.
       -6    1    1    2    0  502 -0.61340494615E+02  0.19883901763E+03 -0.40576823462E+02  0.27363312997E+03  0.17300000000E+03 0. -1.
</event>
<event>
 5   1  0.6181100E+00  0.8078039E+02  0.7957747E-01  0.1325480E+00
       -2   -1    0    0    0  501  0.00000000000E+00  0.00000000000E+00  0.30456382756E+02  0.30456382756E+02  0.00000000000E+00 0.  1.
        1   -1    0    0  501    0  0.00000000000E+00  0.00000000000E+00 -0.53564066430E+02  0.53564066430E+02  0.00000000000E+00 0. -1.
      -24    2    1    2    0    0  0.00000000000E+00  0.00000000000E+00 -0.23107683674E+02  0.84020449186E+02  0.80780386460E+02 0.  0.
       11    1    3    3    0    0 -0.24272646138E+01 -0.16007203462E+02 -0.50041345111E+02  0.52595231691E+02  0.00000000000E+00 0. -1.
      -12    1    3    3    0    0  0.24272646138E+01  0.16007203462E+02  0.26933661437E+02  0.31425217494E+02  0.00000000000E+00 0.  1.
</event>
<event>
 5   1  0.6181100E+00  0.8057528E+02  0.7957747E-01  0.1326026E+00
        1   -1    0    0  501    0  0.00000000000E+00  0.00000000000E+00  0.19515044622E+02  0.19515044622E+02  0.00000000000E+00 0. -1.
       -2   -1    0    0    0  501  0.00000000000E+00  0.00000000000E+00 -0.83171422942E+02  0.83171422942E+02  0.00000000000E+00 0.  1.
      -24    2    1    2    0    0  0.00000000000E+00  0.00000000000E+00 -0.63656378320E+02  0.10268646756E+03  0.80575282315E+02 0.  0.
       11    1    3    3    0    0 -0.27956440306E+02  0.18388112070E+02 -0.32343951434E+01  0.33617652090E+02  0.00000000000E+00 0. -1.
      -12    1    3    3    0    0  0.27956440306E+02 -0.18388112070E+02 -0.60421983176E+02  0.69068815474E+02  0.00000000000E+00 0.  1.
</event>
<event>
 6   2  0.6181100E+00  0.8561820E+02  0.7957747E-01  0.1313128E+00
       21   -1    0    0  501  502  0.00000000000E+00  0.00000000000E+00  0.42299398664E+02  0.42299398664E+02  0.00000000000E+00 0.  1.
       -2   -1    0    0    0  501  0.00000000000E+00  0.00000000000E+00 -0.13562499237E+03  0.13562499237E+03  0.00000000000E+00 0.  1.
      -24    2    1    2    0    0 -0.40575362837E+01  0.25346868978E+02 -0.11565786083E+03  0.14390002444E+03  0.81679550024E+02 0.  0.
       11    1    3    3    0    0 -0.41160522981E+02  0.10182846642E+02 -0.78621545048E+02  0.89326515456E+02  0.00000000000E+00 0. -1.
      -12    1    3    3    0    0  0.37102986698E+02  0.15164022337E+02 -0.37036315787E+02  0.54573508980E+02  0.00000000000E+00 0.  1.
       -1    1    1    2    0  502  0.40575362837E+01 -0.25346868978E+02  0.22332267125E+02  0.34024366602E+02  0.00000000000E+00 0.  1.
</event>
<event>
 5   1  0.6181100E+00  0.8030467E+02  0.7957747E-01  0.1326748E+00
        1   -1    0    0  501    0  0.00000000000E+00  0.00000000000E+00  0.32641239794E+01  0.32641239794E+01  0.00000000000E+00 0. -1.
       -2   -1    0    0    0  501  0.00000000000E+00  0.00000000000E+00 -0.49391814904E+03  0.49391814904E+03  0.00000000000E+00 0.  1.
      -24    2    1    2    0    0  0.00000000000E+00  0.00000000000E+00 -0.49065402506E+03  0.49718227302E+03  0.80304671698E+02 0.  0.
       11    1    3    3    0    0 -0.16714097192E+02  0.34789232661E+02 -0.17678667731E+03  0.18095076962E+03  0.00000000000E+00 0. -1.
      -12    1    3    3    0    0  0.16714097192E+02 -0.34789232661E+02 -0.31386734775E+03  0.31623150339E+03  0.00000000000E+00 0.  1.
</event>
<event>
 5   1  0.6181100E+00  0.8624835E+02  0.7957747E-01  0.1311587E+00
        1   -1    0    0  501    0  0.00000000000E+00  0.00000000000E+00  0.77323462556E+02  0.77323462556E+02  0.00000000000E+00 0. -1.
       -2   -1    0    0    0  501  0.00000000000E+00  0.00000000000E+00 -0.24050845204E+02  0.24050845204E+02  0.00000000000E+00 0.  1.
      -24    2    1    2    0    0  0.00000000000E+00  0.00000000000E+00  0.53272617353E+02  0.10137430776E+03  0.86248353690E+02 0.  0.
       11    1    3    3    0    0 -0.79408285879E+01 -0.29097335235E+02  0.62863527426E+02  0.69724706933E+02  0.00000000000E+00 0. -1.
      -12    1    3    3    0    0  0.79408285879E+01  0.29097335235E+02 -0.95909100732E+01  0.31649600827E+02  0.00000000000E+00 0.  1.
</event>
<event>
 5   1  0.6181100E+00  0.8120140E+02  0.7957747E-01  0.1324367E+00
        1   -1    0    0  501    0  0.00000000000E+00  0.00000000000E+00  0.58083016614E+02  0.58083016614E+02  0.00000000000E+00 0. -1.
       -2   -1    0    0    0  501  0.00000000000E+00  0.00000000000E+00 -0.28380361295E+02  0.28380361295E+02  0.00000000000E+00 0.  1.
      -24    2    1    2    0    0  0.00000000000E+00  0.00000000000E+00  0.29702655319E+02  0.86463377909E+02  0.81201403845E+02 0.  0.
       11    1    3    3    0    0 -0.39861290398E+02 -0.74842556187E+01  0.16837815328E+02  0.43914104561E+02  0.00000000000E+00 0. -1.
      -12    1    3    3    0    0  0.39861290398E+02  0.74842556187E+01  0.12864839990E+02  0.42549273347E+02  0.00000000000E+00 0.  1.
</event>
<event>
 5   1  0.6181100E+00  0.8121880E+02  0.7957747E-01  0.1324321E+00
       -4   -1    0    0    0  501  0.00000000000E+00  0.00000000000E+00  0.11718520482E+02  0.11718520482E+02  0.00000000000E+00 0.  1.
        3   -1    0    0  501    0  0.00000000000E+00  0.00000000000E+00 -0.14072794698E+03  0.14072794698E+03  0.00000000000E+00 0. -1.
      -24    2    1    2    0    0  0.00000000000E+00  0.00000000000E+00 -0.12900942650E+03  0.15244646746E+03  0.81218799033E+02 0.  0.
       11    1    3    3    0    0  0.21296067944E+02 -0.22330036547E+02 -0.11405748293E+03  0.11815778626E+03  0.00000000000E+00 0. -1.
      -12    1    3    3    0    0 -0.21296067944E+02  0.22330036547E+02 -0.14951943570E+02  0.34288681202E+02  0.00000000000E+00 0.  1.
</event>
<event>
 6   2  0.6181100E+00  0.9623372E+02  0.7957747E-01  0.1288988E+00
        1   -1    0    0  502    0  0.00000000000E+00  0.00000000000E+00  0.49354962038E+03  0.49354962038E+03  0.00000000000E+00 0. -1.
       21   -1    0    0  501  502  0.00000000000E+00  0.00000000000E+00 -0.10856283124E+02  0.10856283124E+02  0.00000000000E+00 0. -1.
      -24    2    1    2    0    0  0.16869809698E+02  0.47235667960E+02  0.31961436915E+03  0.33378776659E+03  0.82128736431E+02 0.  0.
       11    1    3    3    0    0  0.40737451429E+02  0.56433756234E+02  0.21020655896E+03  0.22142968686E+03  0.00000000000E+00 0. -1.
      -12    1    3    3    0    0 -0.23867641731E+02 -0.91980882738E+01  0.10940781019E+03  0.11235807973E+03  0.00000000000E+00 0.  1.
        2    1    1    2  501    0 -0.16869809698E+02 -0.47235667960E+02  0.16307896810E+03  0.17061813692E+03  0.00000000000E+00 0. -1.
</event>
<event>
 6   2  0.6181100E+00  0.8511693E+02  0.7957747E-01  0.1314364E+00
       21   -1    0    0  501  502  0.00000000000E+00  0.00000000000E+00  0.18289225652E+02  0.18289225652E+02  0.00000000000E+00 0.  1.
       -4   -1    0    0    0  501  0.00000000000E+00  0.00000000000E+00 -0.19885758062E+03  0.19885758062E+03  0.00000000000E+00 0.  1.
      -24    2    1    2    0    0 -0.26522390287E+02 -0.44720499414E+01 -0.16601946954E+03  0.18656729541E+03  0.80755526329E+02 0.  0.
       11    1    3    3    0    0 -0.81212183078E+01  0.20920431543E+02 -0.56244663320E+01  0.23135541149E+02  0.00000000000E+00 0. -1.
      -12    1    3    3    0    0 -0.18401171979E+02 -0.25392481485E+02 -0.16039500321E+03  0.16343175426E+03  0.00000000000E+00 0.  1.
       -3    1    1    2    0  502  0.26522390287E+02  0.44720499414E+01 -0.14548885419E+02  0.30579510855E+02  0.00000000000E+00 0.  1.
</event>
<event>
 5   1  0.6181100E+00  0.7877014E+02  0.7957747E-01  0.1330905E+00
       -2   -1    0    0    0  501  0.00000000000E+00  0.00000000000E+00  0.13404311862E+02  0.13404311862E+02  0.00000000000E+00 0.  1.
        1   -1    0    0  501    0  0.00000000000E+00  0.00000000000E+00 -0.11572275494E+03  0.11572275494E+03  0.00000000000E+00 0. -1.
      -24    2    1    2    0    0  0.00000000000E+00  0.00000000000E+00 -0.10231844308E+03  0.12912706680E+03  0.78770144007E+02 0.  0.
       11    1    3    3    0    0 -0.25692188933E+02  0.29246059879E+02 -0.60962570821E+02  0.72331567325E+02  0.00000000000E+00 0. -1.
      -12    1    3    3    0    0  0.25692188933E+02 -0.29246059879E+02 -0.41355872257E+02  0.56795499476E+02  0.00000000000E+00 0.  1.
</event>
<event>
 5   1  0.6181100E+00  0.8079007E+02  0.7957747E-01  0.1325455E+00
       -4   -1    0    0    0  501  0.00000000000E+00  0.00000000000E+00  0.42844920598E+01  0.42844920598E+01  0.00000000000E+00 0.  1.
        3   -1    0    0  501    0  0.00000000000E+00  0.00000000000E+00 -0.38085234697E+03  0.38085234697E+03  0.00000000000E+00 0. -1.
      -24    2    1    2    0    0  0.00000000000E+00  0.00000000000E+00 -0.37656785491E+03  0.38513683903E+03  0.80790070097E+02 0.  0.
       11    1    3    3    0    0  0.34758784898E+02  0.18712511863E+02 -0.22913343529E+03  0.23250905874E+03  0.00000000000E+00 0. -1.
      -12    1    3    3    0    0 -0.34758784898E+02 -0.18712511863E+02 -0.14743441962E+03  0.15262778029E+03  0.00000000000E+00 0.  1.
</event>
<event>
 4   3  0.6181100E+00  0.1814816E+03  0.7957747E-01  0.1172047E+00
       21   -1    0    0  501  502  0.00000000000E+00  0.00000000000E+00  0.78369741387E+03  0.78369741387E+03  0.00000000000E+00 0. -1.
       21   -1    0    0  502  503  0.00000000000E+00  0.00000000000E+00 -0.61417591210E+02  0.61417591210E+02  0.00000000000E+00 0. -1.
        6    1    1    2  501    0 -0.61949373081E+00 -0.54828568690E+02  0.59857655708E+03  0.62548337341E+03  0.17300000000E+03 0. -1.
       -6    1    1    2    0  503  0.61949373081E+00  0.54828568690E+02  0.12370326558E+03  0.21963163167E+03  0.17300000000E+03 0. -1.
</event>
<event>
 5   1  0.6181100E+00  0.7991394E+02  0.7957747E-01  0.1327796E+00
        1   -1    0    0  501    0  0.00000000000E+00  0.00000000000E+00  0.10235238450E+03  0.10235238450E+03  0.00000000000E+00 0. -1.
       -2   -1    0    0    0  501  0.00000000000E+00  0.00000000000E+00 -0.15598655855E+02  0.15598655855E+02  0.00000000000E+00 0.  1.
      -24    2    1    2    0    0  0.00000000000E+00  0.00000000000E+00  0.86753728644E+02  0.11795104035E+03  0.79913944258E+02 0.  0.
       11    1    3    3    0    0  0.38470467962E+02  0.10715723433E+02  0.41420994451E+02  0.57536965641E+02  0.00000000000E+00 0. -1.
      -12    1    3    3    0    0 -0.38470467962E+02 -0.10715723433E+02  0.45332734193E+02  0.60414074712E+02  0.00000000000E+00 0.  1.
</event>
<event>
 5   1  0.6181100E+00  0.8330197E+02  0.7957747E-01  0.1318924E+00
        1   -1    0    0  501    0  0.00000000000E+00  0.00000000000E+00  0.18558745928E+01  0.18558745928E+01  0.00000000000E+00 0. -1.
       -2   -1    0    0    0  501  0.00000000000E+00  0.00000000000E+00 -0.93476397173E+03  0.93476397173E+03  0.00000000000E+00 0.  1.
      -24    2    1    2    0    0  0.00000000000E+00  0.00000000000E+00 -0.93290809714E+03  0.93661984632E+03  0.83301973696E+02 0.  0.
       11    1    3    3    0    0  0.12445259276E+02 -0.21270198889E+02 -0.88911310220E+02  0.92263356346E+02  0.00000000000E+00 0. -1.
      -12    1    3    3    0    0 -0.12445259276E+02  0.21270198889E+02 -0.84399678692E+03  0.84435648998E+03  0.00000000000E+00 0.  1.
</event>
<event>
 5   1  0.6181100E+00  0.8029621E+02  0.7957747E-01  0.1326771E+00
        1   -1    0    0  501    0  0.00000000000E+00  0.00000000000E+00  0.10576107329E+02  0.10576107329E+02  0.00000000000E+00 0. -1.
       -2   -1    0    0    0  501  0.00000000000E+00  0.00000000000E+00 -0.15240675468E+03  0.15240675468E+03  0.00000000000E+00 0.  1.
      -24    2    1    2    0    0  0.00000000000E+00  0.00000000000E+00 -0.14183064735E+03  0.16298286201E+03  0.80296206517E+02 0.  0.
       11    1    3    3    0    0  0.14161284270E+02 -0.39755073279E+01  0.49102140529E+01  0.15506670588E+02  0.00000000000E+00 0. -1.
      -12    1    3    3    0    0 -0.14161284270E+02  0.39755073279E+01 -0.14674086141E+03  0.14747619142E+03  0.00000000000E+00 0.  1.
</event>
<event>
 5   1  0.6181100E+00  0.7896317E+02  0.7957747E-01  0.1330376E+00
        1   -1    0    0  501    0  0.00000000000E+00  0.00000000000E+00  0.15269593686E+03  0.15269593686E+03  0.00000000000E+00 0. -1.
       -2   -1    0    0    0  501  0.00000000000E+00  0.00000000000E+00 -0.10208493363E+02  0.10208493363E+02  0.00000000000E+00 0.  1.
      -24    2    1    2    0    0  0.00000000000E+00  0.00000000000E+00  0.14248744350E+03  0.16290443022E+03  0.78963167564E+02 0.  0.
       11    1    3    3    0    0  0.14334272793E+02  0.20204041862E+02  0.13466748221E+03  0.13692700774E+03  0.00000000000E+00 0. -1.
      -12    1    3    3    0    0 -0.14334272793E+02 -0.20204041862E+02  0.78199612825E+01  0.25977422477E+02  0.00000000000E+00 0.  1.
</event>
<event>
 5   1  0.6181100E+00  0.7958429E+02  0.7957747E-01  0.1328686E+00
       -2   -1    0    0    0  501  0.00000000000E+00  0.00000000000E+00  0.11798455056E+02  0.11798455056E+02  0.00000000000E+00 0.  1.
        1   -1    0    0  501    0  0.00000000000E+00  0.00000000000E+00 -0.13420527522E+03  0.13420527522E+03  0.00000000000E+00 0. -1.
      -24    2    1    2    0    0  0.00000000000E+00  0.00000000000E+00 -0.12240682016E+03  0.14600373027E+03  0.79584292618E+02 0.  0.
       11    1    3    3    0    0 -0.21776397442E+01  0.27302819059E+02 -0.11415984551E+03  0.11739955865E+03  0.00000000000E+00 0. -1.
      -12    1    3    3    0    0  0.21776397442E+01 -0.27302819059E+02 -0.82469746477E+01  0.28604171623E+02  0.00000000000E+00 0.  1.
</event>
<event>
 5   1  0.6181100E+00  0.6739924E+02  0.7957747E-01  0.1365475E+00
        1   -1    0    0  501    0  0.00000000000E+00  0.00000000000E+00  0.11575013241E+02  0.11575013241E+02  0.00000000000E+00 0. -1.
       -2   -1    0    0    0  501  0.00000000000E+00  0.00000000000E+00 -0.98113433883E+02  0.98113433883E+02  0.00000000000E+00 0.  1.
      -24    2    1    2    0    0  0.00000000000E+00  0.00000000000E+00 -0.86538420642E+02  0.10968844712E+03  0.67399237276E+02 0.  0.
       11    1    3    3    0    0  0.88587768151E+01 -0.20489024385E+02 -0.21819436011E+01  0.22428529260E+02  0.00000000000E+00 0. -1.
      -12    1    3    3    0    0 -0.88587768151E+01  0.20489024385E+02 -0.84356477041E+02  0.87259917864E+02  0.00000000000E+00 0.  1.
</event>
<event>
 5   1  0.6181100E+00  0.8007117E+02  0.7957747E-01  0.1327374E+00
        1   -1    0    0  501    0  0.00000000000E+00  0.00000000000E+00  0.21200923348E+02  0.21200923348E+02  0.00000000000E+00 0. -1.
       -2   -1    0    0    0  501  0.00000000000E+00  0.00000000000E+00 -0.75602747718E+02  0.75602747718E+02  0.00000000000E+00 0.  1.
      -24    2    1    2    0    0  0.00000000000E+00  0.00000000000E+00 -0.54401824370E+02  0.96803671066E+02  0.80071169824E+02 0.  0.
       11    1    3    3    0    0 -0.17718174763E+02  0.75005794322E+01  0.15245065283E+02  0.24548002449E+02  0.00000000000E+00 0. -1.
      -12    1    3    3    0    0  0.17718174763E+02 -0.75005794322E+01 -0.69646889654E+02  0.72255668616E+02  0.00000000000E+00 0.  1.
</event>
<event>
 6   2  0.6181100E+00  0.1007638E+03  0.7957747E-01  0.1279730E+00
        1   -1    0    0  502    0  0.00000000000E+00  0.00000000000E+00  0.61013090260E+03  0.61013090260E+03  0.00000000000E+00 0. -1.
       -2   -1    0    0    0  501  0.00000000000E+00  0.00000000000E+00 -0.12883605048E+02  0.12883605048E+02  0.00000000000E+00 0.  1.
      -24    2    1    2    0    0 -0.52701253151E+02 -0.34459003196E+02  0.47424959596E+03  0.48483607379E+03  0.78666982908E+02 0.  0.
       11    1    3    3    0    0 -0.61429072871E+02 -0.52344573653E+02  0.39075047234E+03  0.39899801631E+03  0.00000000000E+00 0. -1.
      -12    1    3    3    0    0  0.87278197202E+01  0.17885570457E+02  0.83499123618E+02  0.85838057484E+02  0.00000000000E+00 0.  1.
       21    1    1    2  502  501  0.52701253151E+02  0.34459003196E+02  0.12299770159E+03  0.13817843385E+03  0.00000000000E+00 0.  1.
</event>
<event>
 6   2  0.6181100E+00  0.1810488E+03  0.7957747E-01  0.1172448E+00
        1   -1    0    0  502    0  0.00000000000E+00  0.00000000000E+00  0.82407812403E+02  0.82407812403E+02  0.00000000000E+00 0. -1.
       21   -1    0    0  501  502  0.00000000000E+00  0.00000000000E+00 -0.37298514839E+03  0.37298514839E+03  0.00000000000E+00 0. -1.
      -24    2    1    2    0    0 -0.11337549996E+03 -0.11542634826E+03 -0.20076536894E+03  0.27034314240E+03  0.81249217915E+02 0.  0.
       11    1    3    3    0    0 -0.83070168928E+02 -0.10485596412E+03 -0.19685918268E+03  0.23801042830E+03  0.00000000000E+00 0. -1.
      -12    1    3    3    0    0 -0.30305331028E+02 -0.10570384146E+02 -0.39061862665E+01  0.32332714097E+02  0.00000000000E+00 0.  1.
        2    1    1    2  501    0  0.11337549996E+03  0.11542634826E+03 -0.89811967049E+02  0.18504981840E+03  0.00000000000E+00 0. -1.
</event>
<event>
 6   2  0.6181100E+00  0.9849741E+02  0.7957747E-01  0.1284292E+00
       -2   -1    0    0    0  501  0.00000000000E+00  0.00000000000E+00  0.18766019617E+02  0.18766019617E+02  0.00000000000E+00 0.  1.
        1   -1    0    0  502    0  0.00000000000E+00  0.00000000000E+00 -0.31898492235E+03  0.31898492235E+03  0.00000000000E+00 0. -1.
      -24    2    1    2    0    0 -0.59619155117E+00  0.55247062589E+02 -0.21012253242E+03  0.23206296104E+03  0.81542295079E+02 0.  0.
       11    1    3    3    0    0  0.20069702979E+02  0.34357450910E+02 -0.19499457883E+03  0.19901284678E+03  0.00000000000E+00 0. -1.
      -12    1    3    3    0    0 -0.20665894530E+02  0.20889611680E+02 -0.15127953595E+02  0.33050114264E+02  0.00000000000E+00 0.  1.
       21    1    1    2  502  501  0.59619155117E+00 -0.55247062589E+02 -0.90096370313E+02  0.10568798093E+03  0.00000000000E+00 0. -1.
</event>
<event>
 5   1  0.6181100E+00  0.8056453E+02  0.7957747E-01  0.1326054E+00
       -2   -1    0    0    0  501  0.00000000000E+00  0.00000000000E+00  0.45691809370E+02  0.45691809370E+02  0.00000000000E+00 0.  1.
        1   -1    0    0  501    0  0.00000000000E+00  0.00000000000E+00 -0.35513170734E+02  0.35513170734E+02  0.00000000000E+00 0. -1.
      -24    2    1    2    0    0  0.00000000000E+00  0.00000000000E+00  0.10178638636E+02  0.81204980104E+02  0.80564533818E+02 0.  0.
       11    1    3    3    0    0  0.34313884936E+02  0.20145270114E+02 -0.12364306145E+01  0.39809588895E+02  0.00000000000E+00 0. -1.
      -12    1    3    3    0    0 -0.34313884936E+02 -0.20145270114E+02  0.11415069250E+02  0.41395391209E+02  0.00000000000E+00 0.  1.
</event>
<event>
 5   1  0.6181100E+00  0.7986301E+02  0.7957747E-01  0.1327933E+00
        1   -1    0    0  501    0  0.00000000000E+00  0.00000000000E+00  0.10129353032E+02  0.10129353032E+02  0.00000000000E+00 0. -1.
       -2   -1    0    0    0  501  0.00000000000E+00  0.00000000000E+00 -0.15741629112E+03  0.15741629112E+03  0.00000000000E+00 0.  1.
      -24    2    1    2    0    0  0.00000000000E+00  0.00000000000E+00 -0.14728693809E+03  0.16754564415E+03  0.79863012360E+02 0.  0.
       11    1    3    3    0    0  0.41913081699E+01  0.17526957744E+02  0.11130270790E+01  0.18055473996E+02  0.00000000000E+00 0. -1.
      -12    1    3    3    0    0 -0.41913081699E+01 -0.17526957744E+02 -0.14839996516E+03  0.14949017015E+03  0.00000000000E+00 0.  1.
</event>
<event>
 5   1  0.6181100E+00  0.8397764E+02  0.7957747E-01  0.1317211E+00
       -2   -1    0    0    0  501  0.00000000000E+00  0.00000000000E+00  0.37584726418E+02  0.37584726418E+02  0.00000000000E+00 0.  1.
        1   -1    0    0  501    0  0.00000000000E+00  0.00000000000E+00 -0.46908974650E+02  0.46908974650E+02  0.00000000000E+00 0. -1.
      -24    2    1    2    0    0  0.00000000000E+00  0.00000000000E+00 -0.93242482316E+01  0.84493701069E+02  0.83977639376E+02 0.  0.
       11    1    3    3    0    0 -0.14013101338E+02 -0.15308440840E+02 -0.41387742650E+02  0.46299682631E+02  0.00000000000E+00 0. -1.
      -12    1    3    3    0    0  0.14013101338E+02  0.15308440840E+02  0.32063494419E+02  0.38194018437E+02  0.00000000000E+00 0.  1.
</event>
<event>
 6   2  0.6181100E+00  0.8883445E+02  0.7957747E-01  0.1305415E+00
        1   -1    0    0  502    0  0.00000000000E+00  0.00000000000E+00  0.14516546124E+03  0.14516546124E+03  0.00000000000E+00 0. -1.
       21   -1    0    0  501  502  0.00000000000E+00  0.00000000000E+00 -0.31033259985E+02  0.31033259985E+02  0.00000000000E+00 0. -1.
      -24    2    1    2    0    0  0.27070540434E+01 -0.34704728694E+02  0.10962195606E+03  0.14109760091E+03  0.81730125394E+02 0.  0.
       11    1    3    3    0    0  0.39680482002E+02 -0.29783464518E+02  0.76694291057E+02  0.91343361507E+02  0.00000000000E+00 0. -1.
      -12    1    3    3    0    0 -0.36973427959E+02 -0.49212641756E+01  0.32927665006E+02  0.49754239406E+02  0.00000000000E+00 0.  1.
        2    1    1    2  501    0 -0.27070540434E+01  0.34704728694E+02  0.45102451883E+01  0.35101120309E+02  0.00000000000E+00 0. -1.
</event>
<event>
 6   2  0.6181100E+00  0.8747767E+02  0.7957747E-01  0.1308623E+00
        1   -1    0    0  502    0  0.00000000000E+00  0.00000000000E+00  0.13175755694E+02  0.13175755694E+02  0.00000000000E+00 0. -1.
       -2   -1    0    0    0  501  0.00000000000E+00  0.00000000000E+00 -0.24733882934E+03  0.24733882934E+03  0.00000000000E+00 0.  1.
      -24    2    1    2    0    0  0.12625116591E+02 -0.23033580441E+02 -0.17009572819E+03  0.19127179371E+03  0.83441014631E+02 0.  0.
       11    1    3    3    0    0  0.29239411135E+02 -0.94230545514E+01 -0.14094916165E+02  0.33799464231E+02  0.00000000000E+00 0. -1.
      -12    1    3    3    0    0 -0.16614294544E+02 -0.13610525890E+02 -0.15600081203E+03  0.15747232948E+03  0.00000000000E+00 0.  1.
       21    1    1    2  502  501 -0.12625116591E+02  0.23033580441E+02 -0.64067345452E+02  0.69242791323E+02  0.00000000000E+00 0.  1.
</event>
<event>
 5   1  0.6181100E+00  0.7990265E+02  0.7957747E-01  0.1327827E+00
        3   -1    0    0  501    0  0.00000000000E+00  0.00000000000E+00  0.35771979421E+02  0.35771979421E+02  0.00000000000E+00 0. -1.
       -4   -1    0    0    0  501  0.00000000000E+00  0.00000000000E+00 -0.44618961051E+02  0.44618961051E+02  0.00000000000E+00 0.  1.
      -24    2    1    2    0    0  0.00000000000E+00  0.00000000000E+00 -0.88469816306E+01  0.80390940472E+02  0.79902654687E+02 0.  0.
       11    1    3    3    0    0 -0.13749178239E+02  0.82063067213E+01  0.32402442424E+02  0.36142795233E+02  0.00000000000E+00 0. -1.
      -12    1    3    3    0    0  0.13749178239E+02 -0.82063067213E+01 -0.41249424054E+02  0.44248145239E+02  0.00000000000E+00 0.  1.
</event>
<event>
 5   1  0.6181100E+00  0.8181741E+02  0.7957747E-01  0.1322752E+00
       -2   -1    0    0    0  501  0.00000000000E+00  0.00000000000E+00  0.84803179226E+01  0.84803179226E+01  0.00000000000E+00 0.  1.
        1   -1    0    0  501    0  0.00000000000E+00  0.00000000000E+00 -0.19734189112E+03  0.19734189112E+03  0.00000000000E+00 0. -1.
      -24    2    1    2    0    0  0.00000000000E+00  0.00000000000E+00 -0.18886157320E+03  0.20582220904E+03  0.81817405877E+02 0.  0.
       11    1    3    3    0    0 -0.34577852417E+02  0.21829575578E+02 -0.97368507136E+02  0.10560674424E+03  0.00000000000E+00 0. -1.
      -12    1    3    3    0    0  0.34577852417E+02 -0.21829575578E+02 -0.91493066060E+02  0.10021546480E+03  0.00000000000E+00 0.  1.
</event>
<event>
 5   1  0.6181100E+00  0.7309671E+02  0.7957747E-01  0.1347259E+00
        1   -1    0    0  501    0  0.00000000000E+00  0.00000000000E+00  0.64831936836E+01  0.64831936836E+01  0.00000000000E+00 0. -1.
       -2   -1    0    0    0  501  0.00000000000E+00  0.00000000000E+00 -0.20603767874E+03  0.20603767874E+03  0.00000000000E+00 0.  1.
      -24    2    1    2    0    0  0.00000000000E+00  0.00000000000E+00 -0.19955448506E+03  0.21252087242E+03  0.73096707925E+02 0.  0.
       11    1    3    3    0    0  0.15235489877E+02 -0.65754789328E+00 -0.32084644851E+01  0.15583541490E+02  0.00000000000E+00 0. -1.
      -12    1    3    3    0    0 -0.15235489877E+02  0.65754789328E+00 -0.19634602057E+03  0.19693733093E+03  0.00000000000E+00 0.  1.
</event>
<event>
 5   1  0.6181100E+00  0.8138445E+02  0.7957747E-01  0.1323885E+00
       -4   -1    0    0    0  501  0.00000000000E+00  0.00000000000E+00  0.37349030163E+02  0.37349030163E+02  0.00000000000E+00 0.  1.
        3   -1    0    0  501    0  0.00000000000E+00  0.00000000000E+00 -0.44334674606E+02  0.44334674606E+02  0.00000000000E+00 0. -1.
      -24    2    1    2    0    0  0.00000000000E+00  0.00000000000E+00 -0.69856444425E+01  0.81683704769E+02  0.81384448125E+02 0.  0.
       11    1    3    3    0    0 -0.17993050714E+02  0.34976453642E+02 -0.13959731317E+02  0.41736989371E+02  0.00000000000E+00 0. -1.
      -12    1    3    3    0    0  0.17993050714E+02 -0.34976453642E+02  0.69740868740E+01  0.39946715398E+02  0.00000000000E+00 0.  1.
</event>
<event>
 5   1  0.6181100E+00  0.8009634E+02  0.7957747E-01  0.1327306E+00
        1   -1    0    0  501    0  0.00000000000E+00  0.00000000000E+00  0.12125616724E+03  0.12125616724E+03  0.00000000000E+00 0. -1.
       -2   -1    0    0    0  501  0.00000000000E+00  0.00000000000E+00 -0.13227004454E+02  0.13227004454E+02  0.00000000000E+00 0.  1.
      -24    2    1    2    0    0  0.00000000000E+00  0.00000000000E+00  0.10802916278E+03  0.13448317169E+03  0.80096338595E+02 0.  0.
       11    1    3    3    0    0  0.28409305173E+02  0.27913703787E+02  0.61056931863E+02  0.72898644761E+02  0.00000000000E+00 0. -1.
      -12    1    3    3    0    0 -0.28409305173E+02 -0.27913703787E+02  0.46972230919E+02  0.61584526929E+02  0.00000000000E+00 0.  1.
</event>
<event>
 5   1  0.6181100E+00  0.7731786E+02  0.7957747E-01  0.1334939E+00
       -2   -1    0    0    0  501  0.00000000000E+00  0.00000000000E+00  0.76541764054E+02  0.76541764054E+02  0.00000000000E+00 0.  1.
        1   -1    0    0  501    0  0.00000000000E+00  0.00000000000E+00 -0.19525454737E+02  0.19525454737E+02  0.00000000000E+00 0. -1.
      -24    2    1    2    0    0  0.00000000000E+00  0.00000000000E+00  0.57016309317E+02  0.96067218791E+02  0.77317856916E+02 0.  0.
       11    1    3    3    0    0  0.26263848442E+02  0.26078945778E+02  0.42378096790E+02  0.56265479962E+02  0.00000000000E+00 0. -1.
      -12    1    3    3    0    0 -0.26263848442E+02 -0.26078945778E+02  0.14638212528E+02  0.39801738829E+02  0.00000000000E+00 0.  1.
</event>
<event>
 5   1  0.6181100E+00  0.8061510E+02  0.7957747E-01  0.1325920E+00
       -2   -1    0    0    0  501  0.00000000000E+00  0.00000000000E+00  0.23543105631E+02  0.23543105631E+02  0.00000000000E+00 0.  1.
        1   -1    0    0  501    0  0.00000000000E+00  0.00000000000E+00 -0.69009525633E+02  0.69009525633E+02  0.00000000000E+00 0. -1.
      -24    2    1    2    0    0  0.00000000000E+00  0.00000000000E+00 -0.45466420002E+02  0.92552631264E+02  0.80615099120E+02 0.  0.
       11    1    3    3    0    0  0.36691046588E+02  0.50774078743E+01 -0.40983199051E+02  0.55241610901E+02  0.00000000000E+00 0. -1.
      -12    1    3    3    0    0 -0.36691046588E+02 -0.50774078743E+01 -0.44832209504E+01  0.37311020363E+02  0.00000000000E+00 0.  1.
</event>
<event>
 5   1  0.6181100E+00  0.8646136E+02  0.7957747E-01  0.1311069E+00
        1   -1    0    0  501    0  0.00000000000E+00  0.00000000000E+00  0.40667021793E+01  0.40667021793E+01  0.00000000000E+00 0. -1.
       -2   -1    0    0    0  501  0.00000000000E+00  0.00000000000E+00 -0.45955952445E+03  0.45955952445E+03  0.00000000000E+00 0.  1.
      -24    2    1    2    0    0  0.00000000000E+00  0.00000000000E+00 -0.45549282227E+03  0.46362622663E+03  0.86461360609E+02 0.  0.
       11    1    3    3    0    0 -0.36003433049E+02  0.22429333701E+02 -0.18302088820E+03  0.18787221114E+03  0.00000000000E+00 0. -1.
      -12    1    3    3    0    0  0.36003433049E+02 -0.22429333701E+02 -0.27247193407E+03  0.27575401549E+03  0.00000000000E+00 0.  1.
</event>
<event>
 5   1  0.6181100E+00  0.8100429E+02  0.7957747E-01  0.1324887E+00
        1   -1    0    0  501    0  0.00000000000E+00  0.00000000000E+00  0.10440870268E+03  0.10440870268E+03  0.00000000000E+00 0. -1.
       -2   -1    0    0    0  501  0.00000000000E+00  0.00000000000E+00 -0.15711563389E+02  0.15711563389E+02  0.00000000000E+00 0.  1.
      -24    2    1    2    0    0  0.00000000000E+00  0.00000000000E+00  0.88697139286E+02  0.12012026606E+03  0.81004294960E+02 0.  0.
       11    1    3    3    0    0 -0.16750118315E+02 -0.36834157972E+02  0.41736710971E+02  0.58131529309E+02  0.00000000000E+00 0. -1.
      -12    1    3    3    0    0  0.16750118315E+02  0.36834157972E+02  0.46960428315E+02  0.61988736756E+02  0.00000000000E+00 0.  1.
</event>
<event>
 6   2  0.6181100E+00  0.8205144E+02  0.7957747E-01  0.1322142E+00
       -4   -1    0    0    0  501  0.00000000000E+00  0.00000000000E+00  0.34037358327E+03  0.34037358327E+03  0.00000000000E+00 0.  1.
       21   -1    0    0  501  502  0.00000000000E+00  0.00000000000E+00 -0.91729042262E+01  0.91729042262E+01  0.00000000000E+00 0. -1.
      -24    2    1    2    0    0  0.66908893452E+00  0.21652202837E+02  0.19387990925E+03  0.21052757013E+03  0.79140211070E+02 0.  0.
       11    1    3    3    0    0  0.12186800412E+02  0.38217008461E+02  0.44984909541E+02  0.60271883382E+02  0.00000000000E+00 0. -1.
      -12    1    3    3    0    0 -0.11517711478E+02 -0.16564805625E+02  0.14889499971E+03  0.15025568675E+03  0.00000000000E+00 0.  1.
       -3    1    1    2    0  502 -0.66908893452E+00 -0.21652202837E+02  0.13732076980E+03  0.13901891736E+03  0.00000000000E+00 0.  1.
</event>
<event>
 5   1  0.6181100E+00  0.7998289E+02  0.7957747E-01  0.1327611E+00
       -2   -1    0    0    0  501  0.00000000000E+00  0.00000000000E+00  0.78102985847E+02  0.78102985847E+02  0.00000000000E+00 0.  1.
        1   -1    0    0  501    0  0.00000000000E+00  0.00000000000E+00 -0.20477011953E+02  0.20477011953E+02  0.00000000000E+00 0. -1.
      -24    2    1    2    0    0  0.00000000000E+00  0.00000000000E+00  0.57625973893E+02  0.98579997800E+02  0.79982892540E+02 0.  0.
       11    1    3    3    0    0 -0.83056155598E+01  0.20870611613E+02 -0.11967198271E+02  0.25451512988E+02  0.00000000000E+00 0. -1.
      -12    1    3    3    0    0  0.83056155598E+01 -0.20870611613E+02  0.69593172164E+02  0.73128484812E+02  0.00000000000E+00 0.  1.
</event>
<event>
 5   1  0.6181100E+00  0.8033151E+02  0.7957747E-01  0.1326676E+00
        1   -1    0    0  501    0  0.00000000000E+00  0.00000000000E+00  0.19802124996E+03  0.19802124996E+03  0.00000000000E+00 0. -1.
       -2   -1    0    0    0  501  0.00000000000E+00  0.00000000000E+00 -0.81470444915E+01  0.81470444915E+01  0.00000000000E+00 0.  1.
      -24    2    1    2    0    0  0.00000000000E+00  0.00000000000E+00  0.18987420547E+03  0.20616829445E+03  0.80331511468E+02 0.  0.
       11    1    3    3    0    0 -0.32466015834E+02 -0.13858073889E+02  0.14411693040E+03  0.14837714792E+03  0.00000000000E+00 0. -1.
      -12    1    3    3    0    0  0.32466015834E+02  0.13858073889E+02  0.45757275069E+02  0.57791146535E+02  0.00000000000E+00 0.  1.
</event>
<event>
 4   3  0.6181100E+00  0.1965517E+03  0.7957747E-01  0.1158827E+00
       21   -1    0    0  503  502  0.00000000000E+00  0.00000000000E+00  0.43141104946E+03  0.43141104946E+03  0.00000000000E+00 0.  1.
       21   -1    0    0  501  503  0.00000000000E+00  0.00000000000E+00 -0.92292259639E+02  0.92292259639E+02  0.00000000000E+00 0.  1.
        6    1    1    2  501    0 -0.20867171963E+02  0.90929208321E+02  0.12441727300E+03  0.23262032932E+03  0.17300000000E+03 0.  1.
       -6    1    1    2    0  502  0.20867171963E+02 -0.90929208321E+02  0.21470151682E+03  0.29108297978E+03  0.17300000000E+03 0.  1.
</event>
<event>
 5   1  0.6181100E+00  0.7695014E+02  0.7957747E-01  0.1335976E+00
        1   -1    0    0  501    0  0.00000000000E+00  0.00000000000E+00  0.12214396228E+02  0.12214396228E+02  0.00000000000E+00 0. -1.
       -2   -1    0    0    0  501  0.00000000000E+00  0.00000000000E+00 -0.12119559772E+03  0.12119559772E+03  0.00000000000E+00 0.  1.
      -24    2    1    2    0    0  0.00000000000E+00  0.00000000000E+00 -0.10898120149E+03  0.13340999395E+03  0.76950141044E+02 0.  0.
       11    1    3    3    0    0 -0.25102488385E+02 -0.20676460293E+02 -0.18846730469E+02  0.37587899419E+02  0.00000000000E+00 0. -1.
      -12    1    3    3    0    0  0.25102488385E+02  0.20676460293E+02 -0.90134471025E+02  0.95822094531E+02  0.00000000000E+00 0.  1.
</event>
<event>
 6   2  0.6181100E+00  0.8921298E+02  0.7957747E-01  0.1304531E+00
       -4   -1    0    0    0  501  0.00000000000E+00  0.00000000000E+00  0.12004096371E+04  0.12004096371E+04  0.00000000000E+00 0.  1.
        3   -1    0    0  502    0  0.00000000000E+00  0.00000000000E+00 -0.55197893160E+01  0.55197893160E+01  0.00000000000E+00 0. -1.
      -24    2    1    2    0    0  0.19380635098E+02  0.29446541496E+02  0.11155372868E+04  0.11190989205E+04  0.81952716859E+02 0.  0.
       11    1    3    3    0    0 -0.14513056389E+02  0.17488000998E+02  0.86541788703E+02  0.89475919534E+02  0.00000000000E+00 0. -1.
      -12    1    3    3    0    0  0.33893691486E+02  0.11958540498E+02  0.10289954981E+04  0.10296230009E+04  0.00000000000E+00 0.  1.
       21    1    1    2  502  501 -0.19380635098E+02 -0.29446541496E+02  0.79352560984E+02  0.86830505916E+02  0.00000000000E+00 0. -1.
</event>
<event>
 5   1  0.6181100E+00  0.8043540E+02  0.7957747E-01  0.1326399E+00
       -2   -1    0    0    0  501  0.00000000000E+00  0.00000000000E+00  0.13363734729E+03  0.13363734729E+03  0.00000000000E+00 0.  1.
        1   -1    0    0  501    0  0.00000000000E+00  0.00000000000E+00 -0.12103377952E+02  0.12103377952E+02  0.00000000000E+00 0. -1.
      -24    2    1    2    0    0  0.00000000000E+00  0.00000000000E+00  0.12153396934E+03  0.14574072525E+03  0.80435398249E+02 0.  0.
       11    1    3    3    0    0 -0.49536956978E+01 -0.35720767506E+02  0.93024414905E+02  0.99770006017E+02  0.00000000000E+00 0. -1.
      -12    1    3    3    0    0  0.49536956978E+01  0.35720767506E+02  0.28509554437E+02  0.45970719229E+02  0.00000000000E+00 0.  1.
</event>
<event>
 5   1  0.6181100E+00  0.8093381E+02  0.7957747E-01  0.1325074E+00
       -2   -1    0    0    0  501  0.00000000000E+00  0.00000000000E+00  0.60441637274E+02  0.60441637274E+02  0.00000000000E+00 0.  1.
        1   -1    0    0  501    0  0.00000000000E+00  0.00000000000E+00 -0.27093417691E+02  0.27093417691E+02  0.00000000000E+00 0. -1.
      -24    2    1    2    0    0  0.00000000000E+00  0.00000000000E+00  0.33348219583E+02  0.87535054965E+02  0.80933813072E+02 0.  0.
       11    1    3    3    0    0  0.38541223220E+02  0.14078412540E+01  0.34205382769E+01  0.38718315903E+02  0.00000000000E+00 0. -1.
      -12    1    3    3    0    0 -0.38541223220E+02 -0.14078412540E+01  0.29927681307E+02  0.48816739062E+02  0.00000000000E+00 0.  1.
</event>
<event>
 5   1  0.6181100E+00  0.1099029E+03  0.7957747E-01  0.1262613E+00
        1   -1    0    0  501    0  0.00000000000E+00  0.00000000000E+00  0.74810896378E+02  0.74810896378E+02  0.00000000000E+00 0. -1.
       -2   -1    0    0    0  501  0.00000000000E+00  0.00000000000E+00 -0.40363896298E+02  0.40363896298E+02  0.00000000000E+00 0.  1.
      -24    2    1    2    0    0  0.00000000000E+00  0.00000000000E+00  0.34447000079E+02  0.11517479268E+03  0.10990285280E+03 0.  0.
       11    1    3    3    0    0  0.33021489914E+02  0.22154261144E+02  0.56969434838E+02  0.69474791030E+02  0.00000000000E+00 0. -1.
      -12    1    3    3    0    0 -0.33021489914E+02 -0.22154261144E+02 -0.22522434758E+02  0.45700001646E+02  0.00000000000E+00 0.  1.
</event>
<event>
 5   1  0.6181100E+00  0.8039101E+02  0.7957747E-01  0.1326517E+00
       -2   -1    0    0    0  501  0.00000000000E+00  0.00000000000E+00  0.73618310191E+02  0.73618310191E+02  0.00000000000E+00 0.  1.
        1   -1    0    0  501    0  0.00000000000E+00  0.00000000000E+00 -0.21946695016E+02  0.21946695016E+02  0.00000000000E+00 0. -1.
      -24    2    1    2    0    0  0.00000000000E+00  0.00000000000E+00  0.51671615175E+02  0.95565005206E+02  0.80391009480E+02 0.  0.
       11    1    3    3    0    0  0.32357322127E+02 -0.81078571042E+01 -0.82367004206E+00  0.33367829932E+02  0.00000000000E+00 0. -1.
      -12    1    3    3    0    0 -0.32357322127E+02  0.81078571042E+01  0.52495285217E+02  0.62197175274E+02  0.00000000000E+00 0.  1.
</event>
<event>
 6   2  0.6181100E+00  0.8826780E+02  0.7957747E-01  0.1306747E+00
       -2   -1    0    0    0  501  0.00000000000E+00  0.00000000000E+00  0.25297688477E+03  0.25297688477E+03  0.00000000000E+00 0.  1.
       21   -1    0    0  501  502  0.00000000000E+00  0.00000000000E+00 -0.40799146572E+02  0.40799146572E+02  0.00000000000E+00 0.  1.
      -24    2    1    2    0    0 -0.31065817506E+02  0.19255762642E+02  0.23476499763E+03  0.25081030429E+03  0.80345100764E+02 0.  0.
       11    1    3    3    0    0  0.22206524197E+02 -0.12799616685E+02  0.80725944160E+02  0.84697331509E+02  0.00000000000E+00 0. -1.
      -12    1    3    3    0    0 -0.53272341703E+02  0.32055379327E+02  0.15403905347E+03  0.16611297278E+03  0.00000000000E+00 0.  1.
       -1    1    1    2    0  502  0.31065817506E+02 -0.19255762642E+02 -0.22587259430E+02  0.42965727048E+02  0.00000000000E+00 0.  1.
</event>
<event>
 5   1  0.6181100E+00  0.7956217E+02  0.7957747E-01  0.1328746E+00
       -4   -1    0    0    0  501  0.00000000000E+00  0.00000000000E+00  0.18337203266E+02  0.18337203266E+02  0.00000000000E+00 0.  1.
        3   -1    0    0  501    0  0.00000000000E+00  0.00000000000E+00 -0.86301866478E+02  0.86301866478E+02  0.00000000000E+00 0. -1.
      -24    2    1    2    0    0  0.00000000000E+00  0.00000000000E+00 -0.67964663212E+02  0.10463906974E+03  0.79562173621E+02 0.  0.
       11    1    3    3    0    0  0.23421000069E+01  0.33056667646E+02 -0.62925577008E+02  0.71118611840E+02  0.00000000000E+00 0. -1.
      -12    1    3    3    0    0 -0.23421000069E+01 -0.33056667646E+02 -0.50390862039E+01  0.33520457904E+02  0.00000000000E+00 0.  1.
</event>
<event>
 5   1  0.6181100E+00  0.8032895E+02  0.7957747E-01  0.1326683E+00
        1   -1    0    0  501    0  0.00000000000E+00  0.00000000000E+00  0.90664131464E+01  0.90664131464E+01  0.00000000000E+00 0. -1.
       -2   -1    0    0    0  501  0.00000000000E+00  0.00000000000E+00 -0.17792980966E+03  0.17792980966E+03  0.00000000000E+00 0.  1.
      -24    2    1    2    0    0  0.00000000000E+00  0.00000000000E+00 -0.16886339651E+03  0.18699622281E+03  0.80328952824E+02 0.  0.
       11    1    3    3    0    0  0.23439466770E+02  0.32615270938E+02 -0.84766335406E+02  0.93800299142E+02  0.00000000000E+00 0. -1.
      -12    1    3    3    0    0 -0.23439466770E+02 -0.32615270938E+02 -0.84097061108E+02  0.93195923666E+02  0.00000000000E+00 0.  1.
</event>
<event>
 5   1  0.6181100E+00  0.7917824E+02  0.7957747E-01  0.1329789E+00
       -2   -1    0    0    0  501  0.00000000000E+00  0.00000000000E+00  0.11334374164E+03  0.11334374164E+03  0.00000000000E+00 0.  1.
        1   -1    0    0  501    0  0.00000000000E+00  0.00000000000E+00 -0.13827832408E+02  0.13827832408E+02  0.00000000000E+00 0. -1.
      -24    2    1    2    0    0  0.00000000000E+00  0.00000000000E+00  0.99515909236E+02  0.12717157405E+03  0.79178235999E+02 0.  0.
       11    1    3    3    0    0 -0.27604492060E+01 -0.27150799073E+02  0.36946147420E+01  0.27539719465E+02  0.00000000000E+00 0. -1.
      -12    1    3    3    0    0  0.27604492060E+01  0.27150799073E+02  0.95821294494E+02  0.99631854587E+02  0.00000000000E+00 0.  1.
</event>
<event>
 5   1  0.6181100E+00  0.7969944E+02  0.7957747E-01  0.1328375E+00
        1   -1    0    0  501    0  0.00000000000E+00  0.00000000000E+00  0.16895842480E+02  0.16895842480E+02  0.00000000000E+00 0. -1.
       -2   -1    0    0    0  501  0.00000000000E+00  0.00000000000E+00 -0.93987625238E+02  0.93987625238E+02  0.00000000000E+00 0.  1.
      -24    2    1    2    0    0  0.00000000000E+00  0.00000000000E+00 -0.77091782758E+02  0.11088346772E+03  0.79699438169E+02 0.  0.
       11    1    3    3    0    0 -0.31198916312E+02 -0.21628314099E+02 -0.21686601050E+02  0.43720304378E+02  0.00000000000E+00 0. -1.
      -12    1    3    3    0    0  0.31198916312E+02  0.21628314099E+02 -0.55405181708E+02  0.67163163340E+02  0.00000000000E+00 0.  1.
</event>
<event>
 5   1  0.6181100E+00  0.8110573E+02  0.7957747E-01  0.1324619E+00
        1   -1    0    0  501    0  0.00000000000E+00  0.00000000000E+00  0.65571165147E+02  0.65571165147E+02  0.00000000000E+00 0. -1.
       -2   -1    0    0    0  501  0.00000000000E+00  0.00000000000E+00 -0.25080150048E+02  0.25080150048E+02  0.00000000000E+00 0.  1.
      -24    2    1    2    0    0  0.00000000000E+00  0.00000000000E+00  0.40491015099E+02  0.90651315195E+02  0.81105725093E+02 0.  0.
       11    1    3    3    0    0  0.35840902845E+02  0.18221586693E+02  0.26153245266E+02  0.47964453257E+02  0.00000000000E+00 0. -1.
      -12    1    3    3    0    0 -0.35840902845E+02 -0.18221586693E+02  0.14337769833E+02  0.42686861938E+02  0.00000000000E+00 0.  1.
</event>
<event>
 5   1  0.6181100E+00  0.8019102E+02  0.7957747E-01  0.1327052E+00
        1   -1    0    0  501    0  0.00000000000E+00  0.00000000000E+00  0.88517218420E+01  0.88517218420E+01  0.00000000000E+00 0. -1.
       -2   -1    0    0    0  501  0.00000000000E+00  0.00000000000E+00 -0.18162003908E+03  0.18162003908E+03  0.00000000000E+00 0.  1.
      -24    2    1    2    0    0  0.00000000000E+00  0.00000000000E+00 -0.17276831724E+03  0.19047176093E+03  0.80191023610E+02 0.  0.
       11    1    3    3    0    0  0.11395827914E+02 -0.32273544009E+02 -0.36776420266E+02  0.50238945294E+02  0.00000000000E+00 0. -1.
      -12    1    3    3    0    0 -0.11395827914E+02  0.32273544009E+02 -0.13599189698E+03  0.14023281563E+03  0.00000000000E+00 0.  1.
</event>
<event>
 5   1  0.6181100E+00  0.7616091E+02  0.7957747E-01  0.1338225E+00
        1   -1    0    0  501    0  0.00000000000E+00  0.00000000000E+00  0.21287705901E+03  0.21287705901E+03  0.00000000000E+00 0. -1.
       -2   -1    0    0    0  501  0.00000000000E+00  0.00000000000E+00 -0.68120118294E+01  0.68120118294E+01  0.00000000000E+00 0.  1.
      -24    2    1    2    0    0  0.00000000000E+00  0.00000000000E+00  0.20606504719E+03  0.21968907084E+03  0.76160909769E+02 0.  0.
       11    1    3    3    0    0  0.66675341505E+01  0.35813935952E+02  0.13502711649E+03  0.13985498278E+03  0.00000000000E+00 0. -1.
      -12    1    3    3    0    0 -0.66675341505E+01 -0.35813935952E+02  0.71037930694E+02  0.79834088066E+02  0.00000000000E+00 0.  1.
</event>
<event>
 6   2  0.6181100E+00  0.8505628E+02  0.7957747E-01  0.1314515E+00
       21   -1    0    0  501  502  0.00000000000E+00  0.00000000000E+00  0.19671877139E+04  0.19671877139E+04  0.00000000000E+00 0. -1.
        1   -1    0    0  502    0  0.00000000000E+00  0.00000000000E+00 -0.12387743559E+02  0.12387743559E+02  0.00000000000E+00 0. -1.
      -24    2    1    2    0    0 -0.12179838488E+02  0.32940230682E+02  0.13580984188E+03  0.16024632432E+03  0.77467180423E+02 0.  0.
       11    1    3    3    0    0 -0.73691154307E+01  0.57974018092E+02  0.81893175644E+02  0.10060707159E+03  0.00000000000E+00 0. -1.
      -12    1    3    3    0    0 -0.48107230577E+01 -0.25033787409E+02  0.53916666235E+02  0.59639252731E+02  0.00000000000E+00 0.  1.
        2    1    1    2  501    0  0.12179838488E+02 -0.32940230682E+02  0.18189901284E+04  0.18193291331E+04  0.00000000000E+00 0. -1.
</event>
<event>
 5   1  0.6181100E+00  0.8007828E+02  0.7957747E-01  0.1327354E+00
       -4   -1    0    0    0  501  0.00000000000E+00  0.00000000000E+00  0.37578019157E+02  0.37578019157E+02  0.00000000000E+00 0.  1.
        3   -1    0    0  501    0  0.00000000000E+00  0.00000000000E+00 -0.42661451374E+02  0.42661451374E+02  0.00000000000E+00 0. -1.
      -24    2    1    2    0    0  0.00000000000E+00  0.00000000000E+00 -0.50834322167E+01  0.80239470531E+02  0.80078282624E+02 0.  0.
       11    1    3    3    0    0  0.17169128918E+02 -0.84408085943E+01 -0.37785040357E+02  0.42352514828E+02  0.00000000000E+00 0. -1.
      -12    1    3    3    0    0 -0.17169128918E+02  0.84408085943E+01  0.32701608140E+02  0.37886955703E+02  0.00000000000E+00 0.  1.
</event>
<event>
 5   1  0.6181100E+00  0.8289656E+02  0.7957747E-01  0.1319960E+00
        1   -1    0    0  501    0  0.00000000000E+00  0.00000000000E+00  0.55861726491E+01  0.55861726491E+01  0.00000000000E+00 0. -1.
       -2   -1    0    0    0  501  0.00000000000E+00  0.00000000000E+00 -0.30753793278E+03  0.30753793278E+03  0.00000000000E+00 0.  1.
      -24    2    1    2    0    0  0.00000000000E+00  0.00000000000E+00 -0.30195176013E+03  0.31312410543E+03  0.82896561778E+02 0.  0.
       11    1    3    3    0    0  0.35669088191E+02  0.20059381286E+02 -0.12612105642E+03  0.13259405531E+03  0.00000000000E+00 0. -1.
      -12    1    3    3    0    0 -0.35669088191E+02 -0.20059381286E+02 -0.17583070371E+03  0.18053005012E+03  0.00000000000E+00 0.  1.
</event>
<event>
 5   1  0.6181100E+00  0.8069178E+02  0.7957747E-01  0.1325716E+00
       -4   -1    0    0    0  501  0.00000000000E+00  0.00000000000E+00  0.14761542970E+03  0.14761542970E+03  0.00000000000E+00 0.  1.
        3   -1    0    0  501    0  0.00000000000E+00  0.00000000000E+00 -0.11027241312E+02  0.11027241312E+02  0.00000000000E+00 0. -1.
      -24    2    1    2    0    0  0.00000000000E+00  0.00000000000E+00  0.13658818839E+03  0.15864267101E+03  0.80691783093E+02 0.  0.
       11    1    3    3    0    0 -0.24395911079E+02 -0.27823417448E+02  0.99903099853E+02  0.10653606148E+03  0.00000000000E+00 0. -1.
      -12    1    3    3    0    0  0.24395911079E+02  0.27823417448E+02  0.36685088537E+02  0.52106609531E+02  0.00000000000E+00 0.  1.
</event>
<event>
 5   1  0.6181100E+00  0.8018872E+02  0.7957747E-01  0.1327058E+00
        1   -1    0    0  501    0  0.00000000000E+00  0.00000000000E+00  0.40044019765E+03  0.40044019765E+03  0.00000000000E+00 0. -1.
       -2   -1    0    0    0  501  0.00000000000E+00  0.00000000000E+00 -0.40144760032E+01  0.40144760032E+01  0.00000000000E+00 0.  1.
      -24    2    1    2    0    0  0.00000000000E+00  0.00000000000E+00  0.39642572164E+03  0.40445467365E+03  0.80188716517E+02 0.  0.
       11    1    3    3    0    0 -0.30363261929E+02 -0.16835507032E+02  0.97060680288E+02  0.10308315881E+03  0.00000000000E+00 0. -1.
      -12    1    3    3    0    0  0.30363261929E+02  0.16835507032E+02  0.29936504136E+03  0.30137151484E+03  0.00000000000E+00 0.  1.
</event>
<event>
 6   2  0.6181100E+00  0.8554186E+02  0.7957747E-01  0.1313316E+00
        1   -1    0    0  502    0  0.00000000000E+00  0.00000000000E+00  0.16934303361E+03  0.16934303361E+03  0.00000000000E+00 0. -1.
       21   -1    0    0  501  502  0.00000000000E+00  0.00000000000E+00 -0.23769473148E+02  0.23769473148E+02  0.00000000000E+00 0.  1.
      -24    2    1    2    0    0  0.17458196024E+02  0.18043967349E+02  0.14457413044E+03  0.16798538543E+03  0.81774306220E+02 0.  0.
       11    1    3    3    0    0  0.41740339426E+02  0.27000650414E+02  0.12783973064E+03  0.13716518432E+03  0.00000000000E+00 0. -1.
      -12    1    3    3    0    0 -0.24282143402E+02 -0.89566830657E+01  0.16734399800E+02  0.30820201109E+02  0.00000000000E+00 0.  1.
        2    1    1    2  501    0 -0.17458196024E+02 -0.18043967349E+02  0.99943002147E+00  0.25127121333E+02  0.00000000000E+00 0. -1.
</event>
<event>
 5   1  0.6181100E+00  0.7736929E+02  0.7957747E-01  0.1334794E+00
       -2   -1    0    0    0  501  0.00000000000E+00  0.00000000000E+00  0.67388360204E+03  0.67388360204E+03  0.00000000000E+00 0.  1.
        1   -1    0    0  501    0  0.00000000000E+00  0.00000000000E+00 -0.22207126035E+01  0.22207126035E+01  0.00000000000E+00 0. -1.
      -24    2    1    2    0    0  0.00000000000E+00  0.00000000000E+00  0.67166288944E+03  0.67610431464E+03  0.77369291281E+02 0.  0.
       11    1    3    3    0    0  0.85569630237E+00 -0.31545072195E+02  0.14029651548E+03  0.14380172478E+03  0.00000000000E+00 0. -1.
      -12    1    3    3    0    0 -0.85569630237E+00  0.31545072195E+02  0.53136637396E+03  0.53230258986E+03  0.00000000000E+00 0.  1.
</event>
<event>
 5   1  0.6181100E+00  0.8202555E+02  0.7957747E-01  0.1322209E+00
       -2   -1    0    0    0  501  0.00000000000E+00  0.00000000000E+00  0.55625801189E+03  0.55625801189E+03  0.00000000000E+00 0.  1.
        1   -1    0    0  501    0  0.00000000000E+00  0.00000000000E+00 -0.30238622188E+01  0.30238622188E+01  0.00000000000E+00 0. -1.
      -24    2    1    2    0    0  0.00000000000E+00  0.00000000000E+00  0.55323414967E+03  0.55928187410E+03  0.82025546900E+02 0.  0.
       11    1    3    3    0    0 -0.12536963584E+02  0.32171424255E+02  0.12570543540E+03  0.13036116172E+03  0.00000000000E+00 0. -1.
      -12    1    3    3    0    0  0.12536963584E+02 -0.32171424255E+02  0.42752871426E+03  0.42892071239E+03  0.00000000000E+00 0.  1.
</event>
<event>
 5   1  0.6181100E+00  0.8059235E+02  0.7957747E-01  0.1325980E+00
       -2   -1    0    0    0  501  0.00000000000E+00  0.00000000000E+00  0.95226066720E+02  0.95226066720E+02  0.00000000000E+00 0.  1.
        1   -1    0    0  501    0  0.00000000000E+00  0.00000000000E+00 -0.17051860426E+02  0.17051860426E+02  0.00000000000E+00 0. -1.
      -24    2    1    2    0    0  0.00000000000E+00  0.00000000000E+00  0.78174206295E+02  0.11227792715E+03  0.80592346996E+02 0.  0.
       11    1    3    3    0    0 -0.60842695127E+01  0.35144764698E+02  0.12963658851E+02  0.37950352726E+02  0.00000000000E+00 0. -1.
      -12    1    3    3    0    0  0.60842695127E+01 -0.35144764698E+02  0.65210547444E+02  0.74327574420E+02  0.00000000000E+00 0.  1.
</event>
<event>
 6   2  0.6181100E+00  0.8645142E+02  0.7957747E-01  0.1311093E+00
       21   -1    0    0  501  502  0.00000000000E+00  0.00000000000E+00  0.12855194471E+03  0.12855194471E+03  0.00000000000E+00 0.  1.
        1   -1    0    0  502    0  0.00000000000E+00  0.00000000000E+00 -0.31433598457E+02  0.31433598457E+02  0.00000000000E+00 0. -1.
      -24    2    1    2    0    0  0.30188954781E+02 -0.82148358464E+01  0.40878649905E+02  0.95629036395E+02  0.80591513604E+02 0.  0.
       11    1    3    3    0    0  0.24383887974E+02 -0.14678841712E+02 -0.19582207441E+02  0.34547145106E+02  0.00000000000E+00 0. -1.
      -12    1    3    3    0    0  0.58050668073E+01  0.64640058657E+01  0.60460857346E+02  0.61081891289E+02  0.00000000000E+00 0.  1.
        2    1    1    2  501    0 -0.30188954781E+02  0.82148358464E+01  0.56239696352E+02  0.64356506777E+02  0.00000000000E+00 0. -1.
</event>
<event>
 4   3  0.6181100E+00  0.2004495E+03  0.7957747E-01  0.1155618E+00
       21   -1    0    0  503  502  0.00000000000E+00  0.00000000000E+00  0.13630736137E+04  0.13630736137E+04  0.00000000000E+00 0. -1.
       21   -1    0    0  501  503  0.00000000000E+00  0.00000000000E+00 -0.44089309641E+02  0.44089309641E+02  0.00000000000E+00 0.  1.
        6    1    1    2  501    0  0.19675053358E+01 -0.10122806445E+03  0.25445034289E+03  0.32392123905E+03  0.17300000000E+03 0.  1.
       -6    1    1    2    0  502 -0.19675053358E+01  0.10122806445E+03  0.10645339611E+04  0.10832416842E+04  0.17300000000E+03 0. -1.
</event>
<event>
 6   2  0.6181100E+00  0.9366490E+02  0.7957747E-01  0.1294497E+00
       21   -1    0    0  501  502  0.00000000000E+00  0.00000000000E+00  0.83479838757E+02  0.83479838757E+02  0.00000000000E+00 0.  1.
        3   -1    0    0  502    0  0.00000000000E+00  0.00000000000E+00 -0.48492424881E+02  0.48492424881E+02  0.00000000000E+00 0. -1.
      -24    2    1    2    0    0 -0.20891990345E+02  0.25391508143E+02  0.19716654441E+02  0.95717608212E+02  0.87703535351E+02 0.  0.
       11    1    3    3    0    0  0.20642800721E+01 -0.30830246645E+02 -0.26245343781E+01  0.31010539195E+02  0.00000000000E+00 0. -1.
      -12    1    3    3    0    0 -0.22956270417E+02  0.56221754788E+02  0.22341188819E+02  0.64707069017E+02  0.00000000000E+00 0.  1.
        4    1    1    2  501    0  0.20891990345E+02 -0.25391508143E+02  0.15270759436E+02  0.36254655426E+02  0.00000000000E+00 0. -1.
</event>
<event>
 5   1  0.6181100E+00  0.8129498E+02  0.7957747E-01  0.1324121E+00
       -2   -1    0    0    0  501  0.00000000000E+00  0.00000000000E+00  0.55016770340E+02  0.55016770340E+02  0.00000000000E+00 0.  1.
        1   -1    0    0  501    0  0.00000000000E+00  0.00000000000E+00 -0.30031180567E+02  0.30031180567E+02  0.00000000000E+00 0. -1.
      -24    2    1    2    0    0  0.00000000000E+00  0.00000000000E+00  0.24985589773E+02  0.85047950906E+02  0.81294982976E+02 0.  0.
       11    1    3    3    0    0  0.27415506870E+02 -0.27310544283E+02 -0.52103785905E+00  0.38700740644E+02  0.00000000000E+00 0. -1.
      -12    1    3    3    0    0 -0.27415506870E+02  0.27310544283E+02  0.25506627632E+02  0.46347210262E+02  0.00000000000E+00 0.  1.
</event>
<event>
 5   1  0.6181100E+00  0.7608035E+02  0.7957747E-01  0.1338457E+00
        1   -1    0    0  501    0  0.00000000000E+00  0.00000000000E+00  0.15197879907E+03  0.15197879907E+03  0.00000000000E+00 0. -1.
       -2   -1    0    0    0  501  0.00000000000E+00  0.00000000000E+00 -0.95214254891E+01  0.95214254891E+01  0.00000000000E+00 0.  1.
      -24    2    1    2    0    0  0.00000000000E+00  0.00000000000E+00  0.14245737358E+03  0.16150022456E+03  0.76080347298E+02 0.  0.
       11    1    3    3    0    0  0.15956832054E+02  0.31814903478E+02  0.99727957687E+02  0.10588897070E+03  0.00000000000E+00 0. -1.
      -12    1    3    3    0    0 -0.15956832054E+02 -0.31814903478E+02  0.42729415892E+02  0.55611253852E+02  0.00000000000E+00 0.  1.
</event>
<event>
 5   1  0.6181100E+00  0.6789243E+02  0.7957747E-01  0.1363819E+00
       -2   -1    0    0    0  501  0.00000000000E+00  0.00000000000E+00  0.66208352333E+01  0.66208352333E+01  0.00000000000E+00 0.  1.
        1   -1    0    0  501    0  0.00000000000E+00  0.00000000000E+00 -0.17404834884E+03  0.17404834884E+03  0.00000000000E+00 0. -1.
      -24    2    1    2    0    0  0.00000000000E+00  0.00000000000E+00 -0.16742751361E+03  0.18066918408E+03  0.67892427864E+02 0.  0.
       11    1    3    3    0    0 -0.17903263169E+02  0.21240350192E+02 -0.13563377826E+03  0.13844927271E+03  0.00000000000E+00 0. -1.
      -12    1    3    3    0    0  0.17903263169E+02 -0.21240350192E+02 -0.31793735347E+02  0.42219911365E+02  0.00000000000E+00 0.  1.
</event>
<event>
 5   1  0.6181100E+00  0.7929814E+02  0.7957747E-01  0.1329463E+00
        1   -1    0    0  501    0  0.00000000000E+00  0.00000000000E+00  0.14367814869E+02  0.14367814869E+02  0.00000000000E+00 0. -1.
       -2   -1    0    0    0  501  0.00000000000E+00  0.00000000000E+00 -0.10941459027E+03  0.10941459027E+03  0.00000000000E+00 0.  1.
      -24    2    1    2    0    0  0.00000000000E+00  0.00000000000E+00 -0.95046775398E+02  0.12378240514E+03  0.79298135587E+02 0.  0.
       11    1    3    3    0    0  0.38608646980E+02 -0.83671542868E+01 -0.52796546084E+02  0.65940216643E+02  0.00000000000E+00 0. -1.
      -12    1    3    3    0    0 -0.38608646980E+02  0.83671542868E+01 -0.42250229313E+02  0.57842188492E+02  0.00000000000E+00 0.  1.
</event>
<event>
 5   1  0.6181100E+00  0.8078832E+02  0.7957747E-01  0.1325459E+00
        1   -1    0    0  501    0  0.00000000000E+00  0.00000000000E+00  0.96481800285E+02  0.96481800285E+02  0.00000000000E+00 0. -1.
       -2   -1    0    0    0  501  0.00000000000E+00  0.00000000000E+00 -0.16911877147E+02  0.16911877147E+02  0.00000000000E+00 0.  1.
      -24    2    1    2    0    0  0.00000000000E+00  0.00000000000E+00  0.79569923138E+02  0.11339367743E+03  0.80788324733E+02 0.  0.
       11    1    3    3    0    0 -0.27017065184E+02 -0.99579308646E+01  0.79549091158E+02  0.84599882402E+02  0.00000000000E+00 0. -1.
      -12    1    3    3    0    0  0.27017065184E+02  0.99579308646E+01  0.20831980018E-01  0.28793795030E+02  0.00000000000E+00 0.  1.
</event>
<event>
 5   1  0.6181100E+00  0.8121661E+02  0.7957747E-01  0.1324327E+00
       -2   -1    0    0    0  501  0.00000000000E+00  0.00000000000E+00  0.26484212446E+03  0.26484212446E+03  0.00000000000E+00 0.  1.
        1   -1    0    0  501    0  0.00000000000E+00  0.00000000000E+00 -0.62264804274E+01  0.62264804274E+01  0.00000000000E+00 0. -1.
      -24    2    1    2    0    0  0.00000000000E+00  0.00000000000E+00  0.25861564403E+03  0.27106860489E+03  0.81216606782E+02 0.  0.
       11    1    3    3    0    0  0.33108570383E+00  0.31618435584E+02  0.44267798083E+02  0.54401038902E+02  0.00000000000E+00 0. -1.
      -12    1    3    3    0    0 -0.33108570383E+00 -0.31618435584E+02  0.21434784595E+03  0.21666756598E+03  0.00000000000E+00 0.  1.
</event>
<event>
 6   2  0.6181100E+00  0.8774586E+02  0.7957747E-01  0.1307983E+00
        1   -1    0    0  502    0  0.00000000000E+00  0.00000000000E+00  0.28815168913E+03  0.28815168913E+03  0.00000000000E+00 0. -1.
       -2   -1    0    0    0  501  0.00000000000E+00  0.00000000000E+00 -0.14584103925E+02  0.14584103925E+02  0.00000000000E+00 0.  1.
      -24    2    1    2    0    0 -0.13663944894E+02  0.32902365314E+02  0.14649446088E+03  0.17076288690E+03  0.80187701304E+02 0.  0.
       11    1    3    3    0    0  0.59962410799E+01  0.53305255649E+02  0.12214191601E+03  0.13340184719E+03  0.00000000000E+00 0. -1.
      -12    1    3    3    0    0 -0.19660185974E+02 -0.20402890335E+02  0.24352544867E+02  0.37361039708E+02  0.00000000000E+00 0.  1.
       21    1    1    2  502  501  0.13663944894E+02 -0.32902365314E+02  0.12707312433E+03  0.13197290616E+03  0.00000000000E+00 0. -1.
</event>
<event>
 4   3  0.6181100E+00  0.2495742E+03  0.7957747E-01  0.1120972E+00
       21   -1    0    0  501  502  0.00000000000E+00  0.00000000000E+00  0.44271095566E+03  0.44271095566E+03  0.00000000000E+00 0. -1.
       21   -1    0    0  502  503  0.00000000000E+00  0.00000000000E+00 -0.14108829197E+03  0.14108829197E+03  0.00000000000E+00 0. -1.
        6    1    1    2  501    0 -0.13233270742E+03  0.12184559681E+03  0.16621944733E+03  0.29986030012E+03  0.17300000000E+03 0. -1.
       -6    1    1    2    0  503  0.13233270742E+03 -0.12184559681E+03  0.13540321636E+03  0.28393894751E+03  0.17300000000E+03 0. -1.
</event>
<event>
 5   1  0.6181100E+00  0.7638762E+02  0.7957747E-01  0.1337576E+00
        1   -1    0    0  501    0  0.00000000000E+00  0.00000000000E+00  0.77912092728E+01  0.77912092728E+01  0.00000000000E+00 0. -1.
       -2   -1    0    0    0  501  0.00000000000E+00  0.00000000000E+00 -0.18723242226E+03  0.18723242226E+03  0.00000000000E+00 0.  1.
      -24    2    1    2    0    0  0.00000000000E+00  0.00000000000E+00 -0.17944121298E+03  0.19502363153E+03  0.76387616390E+02 0.  0.
       11    1    3    3    0    0  0.91432633623E+01  0.68832576080E+01  0.33106163569E+01  0.11913802117E+02  0.00000000000E+00 0. -1.
      -12    1    3    3    0    0 -0.91432633623E+01 -0.68832576080E+01 -0.18275182934E+03  0.18310982941E+03  0.00000000000E+00 0.  1.
</event>
<event>
 5   1  0.6181100E+00  0.8126473E+02  0.7957747E-01  0.1324200E+00
        1   -1    0    0  501    0  0.00000000000E+00  0.00000000000E+00  0.41221248857E+02  0.41221248857E+02  0.00000000000E+00 0. -1.
       -2   -1    0    0    0  501  0.00000000000E+00  0.00000000000E+00 -0.40051891865E+02  0.40051891865E+02  0.00000000000E+00 0.  1.
      -24    2    1    2    0    0  0.00000000000E+00  0.00000000000E+00  0.11693569923E+01  0.81273140722E+02  0.81264727939E+02 0.  0.
       11    1    3    3    0    0  0.23667552123E+02 -0.26978853169E+02  0.19638618168E+02  0.40910718221E+02  0.00000000000E+00 0. -1.
      -12    1    3    3    0    0 -0.23667552123E+02  0.26978853169E+02 -0.18469261176E+02  0.40362422501E+02  0.00000000000E+00 0.  1.
</event>
<event>
 4   3  0.6181100E+00  0.1731643E+03  0.7957747E-01  0.1179964E+00
       21   -1    0    0  501  502  0.00000000000E+00  0.00000000000E+00  0.77505000464E+02  0.77505000464E+02  0.00000000000E+00 0. -1.
       21   -1    0    0  502  503  0.00000000000E+00  0.00000000000E+00 -0.58497713291E+03  0.58497713291E+03  0.00000000000E+00 0. -1.
        6    1    1    2  501    0  0.78801845813E+00  0.75000248765E+01 -0.60982063993E+02  0.18358835332E+03  0.17300000000E+03 0. -1.
       -6    1    1    2    0  503 -0.78801845813E+00 -0.75000248765E+01 -0.44649006846E+03  0.47889378006E+03  0.17300000000E+03 0. -1.
</event>
<event>
 5   1  0.6181100E+00  0.7536394E+02  0.7957747E-01  0.1340528E+00
       -2   -1    0    0    0  501  0.00000000000E+00  0.00000000000E+00  0.11188924874E+02  0.11188924874E+02  0.00000000000E+00 0.  1.
        1   -1    0    0  501    0  0.00000000000E+00  0.00000000000E+00 -0.12690502419E+03  0.12690502419E+03  0.00000000000E+00 0. -1.
      -24    2    1    2    0    0  0.00000000000E+00  0.00000000000E+00 -0.11571609932E+03  0.13809394907E+03  0.75363937843E+02 0.  0.
       11    1    3    3    0    0 -0.57644964708E+01 -0.37223723883E+02 -0.59776123541E+02  0.70654228358E+02  0.00000000000E+00 0. -1.
      -12    1    3    3    0    0  0.57644964708E+01  0.37223723883E+02 -0.55939975778E+02  0.67439720709E+02  0.00000000000E+00 0.  1.
</event>
<event>
 5   1  0.6181100E+00  0.7926891E+02  0.7957747E-01  0.1329542E+00
       -2   -1    0    0    0  501  0.00000000000E+00  0.00000000000E+00  0.10628368980E+04  0.10628368980E+04  0.00000000000E+00 0.  1.
        1   -1    0    0  501    0  0.00000000000E+00  0.00000000000E+00 -0.14780161008E+01  0.14780161008E+01  0.00000000000E+00 0. -1.
      -24    2    1    2    0    0  0.00000000000E+00  0.00000000000E+00  0.10613588819E+04  0.10643149141E+04  0.79268910620E+02 0.  0.
       11    1    3    3    0    0 -0.16616950327E+02  0.11118693668E+01  0.47781184024E+02  0.50600403539E+02  0.00000000000E+00 0. -1.
      -12    1    3    3    0    0  0.16616950327E+02 -0.11118693668E+01  0.10135776978E+04  0.10137145105E+04  0.00000000000E+00 0.  1.
</event>
<event>
 5   1  0.6181100E+00  0.7911317E+02  0.7957747E-01  0.1329966E+00
       -2   -1    0    0    0  501  0.00000000000E+00  0.00000000000E+00  0.11290462559E+03  0.11290462559E+03  0.00000000000E+00 0.  1.
        1   -1    0    0  501    0  0.00000000000E+00  0.00000000000E+00 -0.13858808504E+02  0.13858808504E+02  0.00000000000E+00 0. -1.
      -24    2    1    2    0    0  0.00000000000E+00  0.00000000000E+00  0.99045817084E+02  0.12676343409E+03  0.79113174257E+02 0.  0.
       11    1    3    3    0    0 -0.10362398598E+02  0.30917814571E+02  0.85402843887E+02  0.91416280314E+02  0.00000000000E+00 0. -1.
      -12    1    3    3    0    0  0.10362398598E+02 -0.30917814571E+02  0.13642973198E+02  0.35347153778E+02  0.00000000000E+00 0.  1.
</event>
<event>
 5   1  0.6181100E+00  0.7684692E+02  0.7957747E-01  0.1336269E+00
       -2   -1    0    0    0  501  0.00000000000E+00  0.00000000000E+00  0.82671743740E+02  0.82671743740E+02  0.00000000000E+00 0.  1.
        1   -1    0    0  501    0  0.00000000000E+00  0.00000000000E+00 -0.17858126603E+02  0.17858126603E+02  0.00000000000E+00 0. -1.
      -24    2    1    2    0    0  0.00000000000E+00  0.00000000000E+00  0.64813617137E+02  0.10052987034E+03  0.76846924889E+02 0.  0.
       11    1    3    3    0    0  0.35799188955E+02  0.13162372821E+01  0.14230681715E+02  0.38546422824E+02  0.00000000000E+00 0. -1.
      -12    1    3    3    0    0 -0.35799188955E+02 -0.13162372821E+01  0.50582935422E+02  0.61983447519E+02  0.00000000000E+00 0.  1.
</event>
<event>
 5   1  0.6181100E+00  0.8153445E+02  0.7957747E-01  0.1323492E+00
        1   -1    0    0  501    0  0.00000000000E+00  0.00000000000E+00  0.13185963776E+03  0.13185963776E+03  0.00000000000E+00 0. -1.
       -2   -1    0    0    0  501  0.00000000000E+00  0.00000000000E+00 -0.12604059015E+02  0.12604059015E+02  0.00000000000E+00 0.  1.
      -24    2    1    2    0    0  0.00000000000E+00  0.00000000000E+00  0.11925557874E+03  0.14446369677E+03  0.81534450536E+02 0.  0.
       11    1    3    3    0    0 -0.61658253571E+01  0.29275486406E+02  0.10869434480E+03  0.11273656061E+03  0.00000000000E+00 0. -1.
      -12    1    3    3    0    0  0.61658253571E+01 -0.29275486406E+02  0.10561233939E+02  0.31727136160E+02  0.00000000000E+00 0.  1.
</event>
<event>
 5   1  0.6181100E+00  0.8000282E+02  0.7957747E-01  0.1327557E+00
        1   -1    0    0  501    0  0.00000000000E+00  0.00000000000E+00  0.39387909563E+03  0.39387909563E+03  0.00000000000E+00 0. -1.
       -2   -1    0    0    0  501  0.00000000000E+00  0.00000000000E+00 -0.40624463936E+01  0.40624463936E+01  0.00000000000E+00 0.  1.
      -24    2    1    2    0    0  0.00000000000E+00  0.00000000000E+00  0.38981664924E+03  0.39794154203E+03  0.80002817740E+02 0.  0.
       11    1    3    3    0    0  0.28793711114E+02 -0.27503264902E+02  0.17589886789E+03  0.18034943611E+03  0.00000000000E+00 0. -1.
      -12    1    3    3    0    0 -0.28793711114E+02  0.27503264902E+02  0.21391778135E+03  0.21759210592E+03  0.00000000000E+00 0.  1.
</event>
<event>
 6   2  0.6181100E+00  0.8989580E+02  0.7957747E-01  0.1302950E+00
       21   -1    0    0  501  502  0.00000000000E+00  0.00000000000E+00  0.56838081425E+02  0.56838081425E+02  0.00000000000E+00 0.  1.
       -2   -1    0    0    0  501  0.00000000000E+00  0.00000000000E+00 -0.79202971638E+02  0.79202971638E+02  0.00000000000E+00 0.  1.
      -24    2    1    2    0    0  0.79487504487E+01  0.42676505085E+02 -0.22342185385E+02  0.92630602300E+02  0.78719683147E+02 0.  0.
       11    1    3    3    0    0  0.33600503546E+02  0.63708925057E+00  0.83155738994E+01  0.34620059078E+02  0.00000000000E+00 0. -1.
      -12    1    3    3    0    0 -0.25651753097E+02  0.42039415834E+02 -0.30657759284E+02  0.58010543222E+02  0.00000000000E+00 0.  1.
       -1    1    1    2    0  502 -0.79487504487E+01 -0.42676505085E+02 -0.22704827733E-01  0.43410450763E+02  0.00000000000E+00 0.  1.
</event>
<event>
 5   1  0.6181100E+00  0.7772456E+02  0.7957747E-01  0.1333799E+00
       -4   -1    0    0    0  501  0.00000000000E+00  0.00000000000E+00  0.55127683868E+02  0.55127683868E+02  0.00000000000E+00 0.  1.
        3   -1    0    0  501    0  0.00000000000E+00  0.00000000000E+00 -0.27395981313E+02  0.27395981313E+02  0.00000000000E+00 0. -1.
      -24    2    1    2    0    0  0.00000000000E+00  0.00000000000E+00  0.27731702554E+02  0.82523665181E+02  0.77724564897E+02 0.  0.
       11    1    3    3    0    0  0.30880934150E+02 -0.17778196464E+02 -0.26025158843E+01  0.35727712667E+02  0.00000000000E+00 0. -1.
      -12    1    3    3    0    0 -0.30880934150E+02  0.17778196464E+02  0.30334218438E+02  0.46795952514E+02  0.00000000000E+00 0.  1.
</event>
<event>
 5   1  0.6181100E+00  0.7973137E+02  0.7957747E-01  0.1328289E+00
       -2   -1    0    0    0  501  0.00000000000E+00  0.00000000000E+00  0.28865038332E+03  0.28865038332E+03  0.00000000000E+00 0.  1.
        1   -1    0    0  501    0  0.00000000000E+00  0.00000000000E+00 -0.55058740867E+01  0.55058740867E+01  0.00000000000E+00 0. -1.
      -24    2    1    2    0    0  0.00000000000E+00  0.00000000000E+00  0.28314450923E+03  0.29415625741E+03  0.79731365613E+02 0.  0.
       11    1    3    3    0    0  0.37678735516E+01  0.36900560048E+02  0.87674461007E+02  0.95198000587E+02  0.00000000000E+00 0. -1.
      -12    1    3    3    0    0 -0.37678735516E+01 -0.36900560048E+02  0.19547004823E+03  0.19895825682E+03  0.00000000000E+00 0.  1.
</event>
<event>
 6   2  0.6181100E+00  0.8898547E+02  0.7957747E-01  0.1305062E+00
       21   -1    0    0  501  502  0.00000000000E+00  0.00000000000E+00  0.32182677083E+03  0.32182677083E+03  0.00000000000E+00 0.  1.
        1   -1    0    0  502    0  0.00000000000E+00  0.00000000000E+00 -0.17111008688E+02  0.17111008688E+02  0.00000000000E+00 0. -1.
      -24    2    1    2    0    0  0.18589903183E+02  0.31280584185E+02  0.11316181609E+03  0.14395836087E+03  0.81205625403E+02 0.  0.
       11    1    3    3    0    0 -0.13207337811E+02 -0.21907931211E+02  0.45570549474E+02  0.52259603915E+02  0.00000000000E+00 0. -1.
      -12    1    3    3    0    0  0.31797240994E+02  0.53188515396E+02  0.67591266613E+02  0.91698756955E+02  0.00000000000E+00 0.  1.
        2    1    1    2  501    0 -0.18589903183E+02 -0.31280584185E+02  0.19155394605E+03  0.19497941864E+03  0.00000000000E+00 0. -1.
</event>
<event>
 5   1  0.6181100E+00  0.8154199E+02  0.7957747E-01  0.1323472E+00
        3   -1    0    0  501    0  0.00000000000E+00  0.00000000000E+00  0.21605921478E+03  0.21605921478E+03  0.00000000000E+00 0. -1.
       -4   -1    0    0    0  501  0.00000000000E+00  0.00000000000E+00 -0.76936036322E+01  0.76936036322E+01  0.00000000000E+00 0.  1.
      -24    2    1    2    0    0  0.00000000000E+00  0.00000000000E+00  0.20836561115E+03  0.22375281841E+03  0.81541988193E+02 0.  0.
       11    1    3    3    0    0 -0.10295387825E+02 -0.29546543644E+02  0.17591048779E+03  0.17867146657E+03  0.00000000000E+00 0. -1.
      -12    1    3    3    0    0  0.10295387825E+02  0.29546543644E+02  0.32455123358E+02  0.45081351842E+02  0.00000000000E+00 0.  1.
</event>
<event>
 5   1  0.6181100E+00  0.8016461E+02  0.7957747E-01  0.1327123E+00
       -2   -1    0    0    0  501  0.00000000000E+00  0.00000000000E+00  0.19885030287E+03  0.19885030287E+03  0.00000000000E+00 0.  1.
        1   -1    0    0  501    0  0.00000000000E+00  0.00000000000E+00 -0.80794009398E+01  0.80794009398E+01  0.00000000000E+00 0. -1.
      -24    2    1    2    0    0  0.00000000000E+00  0.00000000000E+00  0.19077090193E+03  0.20692970381E+03  0.80164613736E+02 0.  0.
       11    1    3    3    0    0  0.11727282322E+02 -0.33234653959E+01 -0.31792454490E+01  0.12596911309E+02  0.00000000000E+00 0. -1.
      -12    1    3    3    0    0 -0.11727282322E+02  0.33234653959E+01  0.19395014738E+03  0.19433279250E+03  0.00000000000E+00 0.  1.
</event>
<event>
 5   1  0.6181100E+00  0.8166330E+02  0.7957747E-01  0.1323154E+00
        1   -1    0    0  501    0  0.00000000000E+00  0.00000000000E+00  0.32104397381E+02  0.32104397381E+02  0.00000000000E+00 0. -1.
       -2   -1    0    0    0  501  0.00000000000E+00  0.00000000000E+00 -0.51931312947E+02  0.51931312947E+02  0.00000000000E+00 0.  1.
      -24    2    1    2    0    0  0.00000000000E+00  0.00000000000E+00 -0.19826915566E+02  0.84035710328E+02  0.81663296710E+02 0.  0.
       11    1    3    3    0    0 -0.12156652452E+02  0.20949359791E+02  0.23913437630E+02  0.34036926621E+02  0.00000000000E+00 0. -1.
      -12    1    3    3    0    0  0.12156652452E+02 -0.20949359791E+02 -0.43740353196E+02  0.49998783708E+02  0.00000000000E+00 0.  1.
</event>
<event>
 5   1  0.6181100E+00  0.7795006E+02  0.7957747E-01  0.1333171E+00
        1   -1    0    0  501    0  0.00000000000E+00  0.00000000000E+00  0.63548006485E+02  0.63548006485E+02  0.00000000000E+00 0. -1.
       -2   -1    0    0    0  501  0.00000000000E+00  0.00000000000E+00 -0.23904022932E+02  0.23904022932E+02  0.00000000000E+00 0.  1.
      -24    2    1    2    0    0  0.00000000000E+00  0.00000000000E+00  0.39643983552E+02  0.87452029417E+02  0.77950061047E+02 0.  0.
       11    1    3    3    0    0  0.18625081132E+01  0.28351050443E+02  0.49753805689E+02  0.57294783168E+02  0.00000000000E+00 0. -1.
      -12    1    3    3    0    0 -0.18625081132E+01 -0.28351050443E+02 -0.10109822137E+02  0.30157246249E+02  0.00000000000E+00 0.  1.
</event>
<event>
 5   1  0.6181100E+00  0.8120665E+02  0.7957747E-01  0.1324353E+00
        1   -1    0    0  501    0  0.00000000000E+00  0.00000000000E+00  0.54754938452E+01  0.54754938452E+01  0.00000000000E+00 0. -1.
       -2   -1    0    0    0  501  0.00000000000E+00  0.00000000000E+00 -0.30109249456E+03  0.30109249456E+03  0.00000000000E+00 0.  1.
      -24    2    1    2    0    0  0.00000000000E+00  0.00000000000E+00 -0.29561700072E+03  0.30656798841E+03  0.81206652457E+02 0.  0.
       11    1    3    3    0    0  0.19655333142E+02  0.35076438353E+02 -0.12647252380E+03  0.13271016511E+03  0.00000000000E+00 0. -1.
      -12    1    3    3    0    0 -0.19655333142E+02 -0.35076438353E+02 -0.16914447692E+03  0.17385782330E+03  0.00000000000E+00 0.  1.
</event>
<event>
 5   1  0.6181100E+00  0.8078216E+02  0.7957747E-01  0.1325476E+00
       -2   -1    0    0    0  501  0.00000000000E+00  0.00000000000E+00  0.41745102303E+02  0.41745102303E+02  0.00000000000E+00 0.  1.
        1   -1    0    0  501    0  0.00000000000E+00  0.00000000000E+00 -0.39080980037E+02  0.39080980037E+02  0.00000000000E+00 0. -1.
      -24    2    1    2    0    0  0.00000000000E+00  0.00000000000E+00  0.26641222659E+01  0.80826082340E+02  0.80782164114E+02 0.  0.
       11    1    3    3    0    0 -0.24023912737E+02 -0.94153626432E+01 -0.29759615001E+02  0.39388223137E+02  0.00000000000E+00 0. -1.
      -12    1    3    3    0    0  0.24023912737E+02  0.94153626432E+01  0.32423737267E+02  0.41437859202E+02  0.00000000000E+00 0.  1.
</event>
<event>
 5   1  0.6181100E+00  0.7727090E+02  0.7957747E-01  0.1335071E+00
       -4   -1    0    0    0  501  0.00000000000E+00  0.00000000000E+00  0.11253289615E+02  0.11253289615E+02  0.00000000000E+00 0.  1.
        3   -1    0    0  501    0  0.00000000000E+00  0.00000000000E+00 -0.13264547083E+03  0.13264547083E+03  0.00000000000E+00 0. -1.
      -24    2    1    2    0    0  0.00000000000E+00  0.00000000000E+00 -0.12139218121E+03  0.14389876044E+03  0.77270897478E+02 0.  0.
       11    1    3    3    0    0 -0.22256341528E+02 -0.21800664525E+02 -0.10324724691E+03  0.10784529524E+03  0.00000000000E+00 0. -1.
      -12    1    3    3    0    0  0.22256341528E+02  0.21800664525E+02 -0.18144934305E+02  0.36053465199E+02  0.00000000000E+00 0.  1.
</event>
<event>
 6   2  0.6181100E+00  0.8515812E+02  0.7957747E-01  0.1314262E+00
       21   -1    0    0  501  502  0.00000000000E+00  0.00000000000E+00  0.11716296924E+03  0.11716296924E+03  0.00000000000E+00 0.  1.
        3   -1    0    0  502    0  0.00000000000E+00  0.00000000000E+00 -0.33036099835E+02  0.33036099835E+02  0.00000000000E+00 0. -1.
      -24    2    1    2    0    0 -0.13617524309E+02 -0.26289327183E+02  0.33419291603E+02  0.91480893536E+02  0.79845720855E+02 0.  0.
       11    1    3    3    0    0  0.29457701703E+02  0.58570110306E+01  0.19996166474E+02  0.36081954514E+02  0.00000000000E+00 0. -1.
      -12    1    3    3    0    0 -0.43075226012E+02 -0.32146338214E+02  0.13423125129E+02  0.55398939022E+02  0.00000000000E+00 0.  1.
        4    1    1    2  501    0  0.13617524309E+02  0.26289327183E+02  0.50707577804E+02  0.58718175540E+02  0.00000000000E+00 0. -1.
</event>
<event>
 5   1  0.6181100E+00  0.7934653E+02  0.7957747E-01  0.1329331E+00
       -2   -1    0    0    0  501  0.00000000000E+00  0.00000000000E+00  0.67137429956E+01  0.67137429956E+01  0.00000000000E+00 0.  1.
        1   -1    0    0  501    0  0.00000000000E+00  0.00000000000E+00 -0.23443973502E+03  0.23443973502E+03  0.00000000000E+00 0. -1.
      -24    2    1    2    0    0  0.00000000000E+00  0.00000000000E+00 -0.22772599203E+03  0.24115347802E+03  0.79346534364E+02 0.  0.
       11    1    3    3    0    0 -0.16109879129E+02  0.30659140066E+02 -0.17267508087E+03  0.17611415226E+03  0.00000000000E+00 0. -1.
      -12    1    3    3    0    0  0.16109879129E+02 -0.30659140066E+02 -0.55050911163E+02  0.65039325757E+02  0.00000000000E+00 0.  1.
</event>
<event>
 5   1  0.6181100E+00  0.8097065E+02  0.7957747E-01  0.1324976E+00
        1   -1    0    0  501    0  0.00000000000E+00  0.00000000000E+00  0.55351321961E+01  0.55351321961E+01  0.00000000000E+00 0. -1.
       -2   -1    0    0    0  501  0.00000000000E+00  0.00000000000E+00 -0.29611970239E+03  0.29611970239E+03  0.00000000000E+00 0.  1.
      -24    2    1    2    0    0  0.00000000000E+00  0.00000000000E+00 -0.29058457020E+03  0.30165483459E+03  0.80970653909E+02 0.  0.
       11    1    3    3    0    0 -0.19441654966E+02  0.35203558390E+02 -0.12790052966E+03  0.13407391230E+03  0.00000000000E+00 0. -1.
      -12    1    3    3    0    0  0.19441654966E+02 -0.35203558390E+02 -0.16268404053E+03  0.16758092229E+03  0.00000000000E+00 0.  1.
</event>
<event>
 6   2  0.6181100E+00  0.1230748E+03  0.7957747E-01  0.1240971E+00
       21   -1    0    0  501  502  0.00000000000E+00  0.00000000000E+00  0.18681381683E+03  0.18681381683E+03  0.00000000000E+00 0.  1.
       -4   -1    0    0    0  501  0.00000000000E+00  0.00000000000E+00 -0.58474071871E+02  0.58474071871E+02  0.00000000000E+00 0.  1.
      -24    2    1    2    0    0 -0.59950924748E+02  0.58198849272E+02  0.57945928696E+02  0.13603355788E+03  0.90366911990E+02 0.  0.
       11    1    3    3    0    0 -0.71637515735E+02  0.14379783435E+02  0.53308906792E+02  0.90446400568E+02  0.00000000000E+00 0. -1.
      -12    1    3    3    0    0  0.11686590987E+02  0.43819065837E+02  0.46370219044E+01  0.45587157313E+02  0.00000000000E+00 0.  1.
       -3    1    1    2    0  502  0.59950924748E+02 -0.58198849272E+02  0.70393816263E+02  0.10925433082E+03  0.00000000000E+00 0.  1.
</event>
<event>
 5   1  0.6181100E+00  0.8131170E+02  0.7957747E-01  0.1324077E+00
       -2   -1    0    0    0  501  0.00000000000E+00  0.00000000000E+00  0.16783289287E+03  0.16783289287E+03  0.00000000000E+00 0.  1.
        1   -1    0    0  501    0  0.00000000000E+00  0.00000000000E+00 -0.98484761876E+01  0.98484761876E+01  0.00000000000E+00 0. -1.
      -24    2    1    2    0    0  0.00000000000E+00  0.00000000000E+00  0.15798441668E+03  0.17768136905E+03  0.81311702697E+02 0.  0.
       11    1    3    3    0    0  0.14737896686E+02 -0.37692124203E+02  0.70530020113E+02  0.81316576187E+02  0.00000000000E+00 0. -1.
      -12    1    3    3    0    0 -0.14737896686E+02  0.37692124203E+02  0.87454396566E+02  0.96364792867E+02  0.00000000000E+00 0.  1.
</event>
<event>
 6   2  0.6181100E+00  0.9844445E+02  0.7957747E-01  0.1284400E+00
       21   -1    0    0  501  502  0.00000000000E+00  0.00000000000E+00  0.60536644148E+02  0.60536644148E+02  0.00000000000E+00 0.  1.
       -2   -1    0    0    0  501  0.00000000000E+00  0.00000000000E+00 -0.12990837925E+03  0.12990837925E+03  0.00000000000E+00 0.  1.
      -24    2    1    2    0    0 -0.57057977780E+02 -0.68869849328E+01  0.24303763613E+01  0.98474448754E+02  0.79926634724E+02 0.  0.
       11    1    3    3    0    0 -0.39180859670E+02 -0.42916534610E+02  0.37433797672E+01  0.58232135453E+02  0.00000000000E+00 0. -1.
      -12    1    3    3    0    0 -0.17877118110E+02  0.36029549677E+02 -0.13130034059E+01  0.40242313300E+02  0.00000000000E+00 0.  1.
       -1    1    1    2    0  502  0.57057977780E+02  0.68869849328E+01 -0.71802111466E+02  0.91970574647E+02  0.00000000000E+00 0.  1.
</event>
<event>
 5   1  0.6181100E+00  0.8088686E+02  0.7957747E-01  0.1325198E+00
       -4   -1    0    0    0  501  0.00000000000E+00  0.00000000000E+00  0.55921758519E+03  0.55921758519E+03  0.00000000000E+00 0.  1.
        3   -1    0    0  501    0  0.00000000000E+00  0.00000000000E+00 -0.29249281006E+01  0.29249281006E+01  0.00000000000E+00 0. -1.
      -24    2    1    2    0    0  0.00000000000E+00  0.00000000000E+00  0.55629265709E+03  0.56214251329E+03  0.80886864923E+02 0.  0.
       11    1    3    3    0    0 -0.14696942554E+02 -0.18551719158E+02  0.50230435971E+02  0.55527138428E+02  0.00000000000E+00 0. -1.
      -12    1    3    3    0    0  0.14696942554E+02  0.18551719158E+02  0.50606222112E+03  0.50661537486E+03  0.00000000000E+00 0.  1.
</event>
<event>
 5   1  0.6181100E+00  0.5643434E+02  0.7957747E-01  0.1407102E+00
       -2   -1    0    0    0  501  0.00000000000E+00  0.00000000000E+00  0.27771262146E+02  0.27771262146E+02  0.00000000000E+00 0.  1.
        1   -1    0    0  501    0  0.00000000000E+00  0.00000000000E+00 -0.28670236729E+02  0.28670236729E+02  0.00000000000E+00 0. -1.
      -24    2    1    2    0    0  0.00000000000E+00  0.00000000000E+00 -0.89897458292E+00  0.56441498875E+02  0.56434339191E+02 0.  0.
       11    1    3    3    0    0  0.19549783542E+02 -0.13035539198E+02 -0.16074828222E+02  0.28469622777E+02  0.00000000000E+00 0. -1.
      -12    1    3    3    0    0 -0.19549783542E+02  0.13035539198E+02  0.15175853639E+02  0.27971876097E+02  0.00000000000E+00 0.  1.
</event>
<event>
 5   1  0.6181100E+00  0.8059839E+02  0.7957747E-01  0.1325964E+00
       -2   -1    0    0    0  501  0.00000000000E+00  0.00000000000E+00  0.17405857006E+03  0.17405857006E+03  0.00000000000E+00 0.  1.
        1   -1    0    0  501    0  0.00000000000E+00  0.00000000000E+00 -0.93303381453E+01  0.93303381453E+01  0.00000000000E+00 0. -1.
      -24    2    1    2    0    0  0.00000000000E+00  0.00000000000E+00  0.16472823191E+03  0.18338890821E+03  0.80598394916E+02 0.  0.
       11    1    3    3    0    0  0.29381746393E+02 -0.13476107034E+02  0.27607605202E+02  0.42509673568E+02  0.00000000000E+00 0. -1.
      -12    1    3    3    0    0 -0.29381746393E+02  0.13476107034E+02  0.13712062671E+03  0.14087923464E+03  0.00000000000E+00 0.  1.
</event>
<event>
 5   1  0.6181100E+00  0.8100054E+02  0.7957747E-01  0.1324897E+00
       -4   -1    0    0    0  501  0.00000000000E+00  0.00000000000E+00  0.37012316015E+02  0.37012316015E+02  0.00000000000E+00 0.  1.
        3   -1    0    0  501    0  0.00000000000E+00  0.00000000000E+00 -0.44316916220E+02  0.44316916220E+02  0.00000000000E+00 0. -1.
      -24    2    1    2    0    0  0.00000000000E+00  0.00000000000E+00 -0.73046002055E+01  0.81329232235E+02  0.81000535997E+02 0.  0.
       11    1    3    3    0    0  0.37222350969E+02 -0.20241158429E+01 -0.19549148931E+02  0.42092394569E+02  0.00000000000E+00 0. -1.
      -12    1    3    3    0    0 -0.37222350969E+02  0.20241158429E+01  0.12244548726E+02  0.39236837667E+02  0.00000000000E+00 0.  1.
</event>
<event>
 6   2  0.6181100E+00  0.8541656E+02  0.7957747E-01  0.1313624E+00
       -2   -1    0    0    0  501  0.00000000000E+00  0.00000000000E+00  0.31137019559E+03  0.31137019559E+03  0.00000000000E+00 0.  1.
        1   -1    0    0  502    0  0.00000000000E+00  0.00000000000E+00 -0.14087039424E+02  0.14087039424E+02  0.00000000000E+00 0. -1.
      -24    2    1    2    0    0  0.26484706872E+02 -0.71838517788E+01  0.12747881759E+03  0.15344979092E+03  0.80888453901E+02 0.  0.
       11    1    3    3    0    0  0.93203592481E+01 -0.40219651103E+02  0.36341031203E+02  0.55001454346E+02  0.00000000000E+00 0. -1.
      -12    1    3    3    0    0  0.17164347624E+02  0.33035799324E+02  0.91137786387E+02  0.98448336572E+02  0.00000000000E+00 0.  1.
       21    1    1    2  502  501 -0.26484706872E+02  0.71838517788E+01  0.16980433858E+03  0.17200744410E+03  0.00000000000E+00 0.  1.
</event>
<event>
 5   1  0.6181100E+00  0.8112680E+02  0.7957747E-01  0.1324564E+00
       -2   -1    0    0    0  501  0.00000000000E+00  0.00000000000E+00  0.35130863188E+01  0.35130863188E+01  0.00000000000E+00 0.  1.
        1   -1    0    0  501    0  0.00000000000E+00  0.00000000000E+00 -0.46836007808E+03  0.46836007808E+03  0.00000000000E+00 0. -1.
      -24    2    1    2    0    0  0.00000000000E+00  0.00000000000E+00 -0.46484699176E+03  0.47187316440E+03  0.81126799088E+02 0.  0.
       11    1    3    3    0    0 -0.38696458585E+02  0.12045262227E+02 -0.22254379282E+03  0.22620398752E+03  0.00000000000E+00 0. -1.
      -12    1    3    3    0    0  0.38696458585E+02 -0.12045262227E+02 -0.24230319895E+03  0.24566917688E+03  0.00000000000E+00 0.  1.
</event>
<event>
 5   1  0.6181100E+00  0.6951524E+02  0.7957747E-01  0.1358479E+00
        1   -1    0    0  501    0  0.00000000000E+00  0.00000000000E+00  0.11157701689E+03  0.11157701689E+03  0.00000000000E+00 0. -1.
       -2   -1    0    0    0  501  0.00000000000E+00  0.00000000000E+00 -0.10827428053E+02  0.10827428053E+02  0.00000000000E+00 0.  1.
      -24    2    1    2    0    0  0.00000000000E+00  0.00000000000E+00  0.10074958884E+03  0.12240444494E+03  0.69515239272E+02 0.  0.
       11    1    3    3    0    0 -0.16333105785E+02 -0.18509935382E+02  0.93459514162E+02  0.96664723865E+02  0.00000000000E+00 0. -1.
      -12    1    3    3    0    0  0.16333105785E+02  0.18509935382E+02  0.72900746745E+01  0.25739721078E+02  0.00000000000E+00 0.  1.
</event>
<event>
 4   3  0.6181100E+00  0.1838897E+03  0.7957747E-01  0.1169842E+00
       21   -1    0    0  501  502  0.00000000000E+00  0.00000000000E+00  0.41425017285E+03  0.41425017285E+03  0.00000000000E+00 0. -1.
       21   -1    0    0  502  503  0.00000000000E+00  0.00000000000E+00 -0.91217979785E+02  0.91217979785E+02  0.00000000000E+00 0. -1.
        6    1    1    2  501    0 -0.27834273954E+02 -0.55782527966E+02  0.79579779895E+02  0.20037060314E+03  0.17300000000E+03 0.  1.
       -6    1    1    2    0  503  0.27834273954E+02  0.55782527966E+02  0.24345241317E+03  0.30509754950E+03  0.17300000000E+03 0.  1.
</event>
<event>
 5   1  0.6181100E+00  0.8266591E+02  0.7957747E-01  0.1320553E+00
       -2   -1    0    0    0  501  0.00000000000E+00  0.00000000000E+00  0.13362701372E+02  0.13362701372E+02  0.00000000000E+00 0.  1.
        1   -1    0    0  501    0  0.00000000000E+00  0.00000000000E+00 -0.12784937702E+03  0.12784937702E+03  0.00000000000E+00 0. -1.
      -24    2    1    2    0    0  0.00000000000E+00  0.00000000000E+00 -0.11448667565E+03  0.14121207839E+03  0.82665907018E+02 0.  0.
       11    1    3    3    0    0  0.15200063990E+02  0.22785943465E+02 -0.11012037599E+03  0.11347571710E+03  0.00000000000E+00 0. -1.
      -12    1    3    3    0    0 -0.15200063990E+02 -0.22785943465E+02 -0.43662996630E+01  0.27736361290E+02  0.00000000000E+00 0.  1.
</event>
<event>
 5   1  0.6181100E+00  0.7895394E+02  0.7957747E-01  0.1330401E+00
       -2   -1    0    0    0  501  0.00000000000E+00  0.00000000000E+00  0.39932140743E+02  0.39932140743E+02  0.00000000000E+00 0.  1.
        1   -1    0    0  501    0  0.00000000000E+00  0.00000000000E+00 -0.39026988569E+02  0.39026988569E+02  0.00000000000E+00 0. -1.
      -24    2    1    2    0    0  0.00000000000E+00  0.00000000000E+00  0.90515217416E+00  0.78959129311E+02  0.78953941011E+02 0.  0.
       11    1    3    3    0    0 -0.19334743398E+02  0.26994470853E+02 -0.20900581996E+02  0.39234781593E+02  0.00000000000E+00 0. -1.
      -12    1    3    3    0    0  0.19334743398E+02 -0.26994470853E+02  0.21805734171E+02  0.39724347718E+02  0.00000000000E+00 0.  1.
</event>
<event>
 5   1  0.6181100E+00  0.7604867E+02  0.7957747E-01  0.1338548E+00
       -2   -1    0    0    0  501  0.00000000000E+00  0.00000000000E+00  0.29274354794E+02  0.29274354794E+02  0.00000000000E+00 0.  1.
        1   -1    0    0  501    0  0.00000000000E+00  0.00000000000E+00 -0.49389646902E+02  0.49389646902E+02  0.00000000000E+00 0. -1.
      -24    2    1    2    0    0  0.00000000000E+00  0.00000000000E+00 -0.20115292108E+02  0.78664001696E+02  0.76048669852E+02 0.  0.
       11    1    3    3    0    0 -0.13306181806E+02  0.90944478109E+01 -0.45681640246E+02  0.48441466853E+02  0.00000000000E+00 0. -1.
      -12    1    3    3    0    0  0.13306181806E+02 -0.90944478109E+01  0.25566348138E+02  0.30222534843E+02  0.00000000000E+00 0.  1.
</event>
<event>
 5   1  0.6181100E+00  0.8054391E+02  0.7957747E-01  0.1326109E+00
       -4   -1    0    0    0  501  0.00000000000E+00  0.00000000000E+00  0.75651423312E+02  0.75651423312E+02  0.00000000000E+00 0.  1.
        3   -1    0    0  501    0  0.00000000000E+00  0.00000000000E+00 -0.21438199377E+02  0.21438199377E+02  0.00000000000E+00 0. -1.
      -24    2    1    2    0    0  0.00000000000E+00  0.00000000000E+00  0.54213223935E+02  0.97089622689E+02  0.80543908425E+02 0.  0.
       11    1    3    3    0    0 -0.32271769203E+02  0.22829053593E+02  0.17832082787E+02  0.43366069132E+02  0.00000000000E+00 0. -1.
      -12    1    3    3    0    0  0.32271769203E+02 -0.22829053593E+02  0.36381141149E+02  0.53723553557E+02  0.00000000000E+00 0.  1.
</event>
<event>
 5   1  0.6181100E+00  0.8055976E+02  0.7957747E-01  0.1326067E+00
        3   -1    0    0  501    0  0.00000000000E+00  0.00000000000E+00  0.49900076817E+01  0.49900076817E+01  0.00000000000E+00 0. -1.
       -4   -1    0    0    0  501  0.00000000000E+00  0.00000000000E+00 -0.32514351840E+03  0.32514351840E+03  0.00000000000E+00 0.  1.
      -24    2    1    2    0    0  0.00000000000E+00  0.00000000000E+00 -0.32015351072E+03  0.33013352608E+03  0.80559758055E+02 0.  0.
       11    1    3    3    0    0  0.30289043238E+01  0.12574466302E+02 -0.37514028811E+01  0.13467163315E+02  0.00000000000E+00 0. -1.
      -12    1    3    3    0    0 -0.30289043238E+01 -0.12574466302E+02 -0.31640210784E+03  0.31666636276E+03  0.00000000000E+00 0.  1.
</event>
<event>
 5   1  0.6181100E+00  0.7986597E+02  0.7957747E-01  0.1327925E+00
       -2   -1    0    0    0  501  0.00000000000E+00  0.00000000000E+00  0.33161357734E+03  0.33161357734E+03  0.00000000000E+00 0.  1.
        1   -1    0    0  501    0  0.00000000000E+00  0.00000000000E+00 -0.48087390441E+01  0.48087390441E+01  0.00000000000E+00 0. -1.
      -24    2    1    2    0    0  0.00000000000E+00  0.00000000000E+00  0.32680483830E+03  0.33642231639E+03  0.79865966642E+02 0.  0.
       11    1    3    3    0    0  0.10088695430E+02 -0.37714190208E+02  0.12803353023E+03  0.13385337792E+03  0.00000000000E+00 0. -1.
      -12    1    3    3    0    0 -0.10088695430E+02  0.37714190208E+02  0.19877130807E+03  0.20256893847E+03  0.00000000000E+00 0.  1.
</event>
<event>
 5   1  0.6181100E+00  0.7711698E+02  0.7957747E-01  0.1335505E+00
        1   -1    0    0  501    0  0.00000000000E+00  0.00000000000E+00  0.61501235202E+01  0.61501235202E+01  0.00000000000E+00 0. -1.
       -2   -1    0    0    0  501  0.00000000000E+00  0.00000000000E+00 -0.24174424506E+03  0.24174424506E+03  0.00000000000E+00 0.  1.
      -24    2    1    2    0    0  0.00000000000E+00  0.00000000000E+00 -0.23559412154E+03  0.24789436858E+03  0.77116975237E+02 0.  0.
       11    1    3    3    0    0  0.20479527203E+02 -0.29250401411E+02 -0.71019390607E+02  0.79490570883E+02  0.00000000000E+00 0. -1.
      -12    1    3    3    0    0 -0.20479527203E+02  0.29250401411E+02 -0.16457473093E+03  0.16840379770E+03  0.00000000000E+00 0.  1.
</event>
<event>
 5   1  0.6181100E+00  0.7746184E+02  0.7957747E-01  0.1334535E+00
       -2   -1    0    0    0  501  0.00000000000E+00  0.00000000000E+00  0.31212763911E+02  0.31212763911E+02  0.00000000000E+00 0.  1.
        1   -1    0    0  501    0  0.00000000000E+00  0.00000000000E+00 -0.48059964057E+02  0.48059964057E+02  0.00000000000E+00 0. -1.
      -24    2    1    2    0    0  0.00000000000E+00  0.00000000000E+00 -0.16847200146E+02  0.79272727967E+02  0.77461843811E+02 0.  0.
       11    1    3    3    0    0  0.16246127398E+02 -0.10399581176E+00 -0.44404270262E+02  0.47283048633E+02  0.00000000000E+00 0. -1.
      -12    1    3    3    0    0 -0.16246127398E+02  0.10399581176E+00  0.27557070116E+02  0.31989679334E+02  0.00000000000E+00 0.  1.
</event>
<event>
 6   2  0.6181100E+00  0.9352726E+02  0.7957747E-01  0.1294798E+00
       21   -1    0    0  501  502  0.00000000000E+00  0.00000000000E+00  0.83936190149E+02  0.83936190149E+02  0.00000000000E+00 0.  1.
       -2   -1    0    0    0  501  0.00000000000E+00  0.00000000000E+00 -0.74888768990E+02  0.74888768990E+02  0.00000000000E+00 0.  1.
      -24    2    1    2    0    0  0.48095770249E+02  0.29337771617E+01 -0.28461119083E+02  0.97761870816E+02  0.80159453103E+02 0.  0.
       11    1    3    3    0    0 -0.29708208272E+01  0.26872434995E+02  0.10725043147E+02  0.29085736874E+02  0.00000000000E+00 0. -1.
      -12    1    3    3    0    0  0.51066591076E+02 -0.23938657834E+02 -0.39186162230E+02  0.68676133943E+02  0.00000000000E+00 0.  1.
       -1    1    1    2    0  502 -0.48095770249E+02 -0.29337771617E+01  0.37508540242E+02  0.61063088322E+02  0.00000000000E+00 0.  1.
</event>
<event>
 5   1  0.6181100E+00  0.7883497E+02  0.7957747E-01  0.1330727E+00
        3   -1    0    0  501    0  0.00000000000E+00  0.00000000000E+00  0.30294367406E+02  0.30294367406E+02  0.00000000000E+00 0. -1.
       -4   -1    0    0    0  501  0.00000000000E+00  0.00000000000E+00 -0.51288016446E+02  0.51288016446E+02  0.00000000000E+00 0.  1.
      -24    2    1    2    0    0  0.00000000000E+00  0.00000000000E+00 -0.20993649041E+02  0.81582383852E+02  0.78834967210E+02 0.  0.
       11    1    3    3    0    0 -0.12180987693E+02 -0.12120654263E+02  0.26214132443E+02  0.31344336980E+02  0.00000000000E+00 0. -1.
      -12    1    3    3    0    0  0.12180987693E+02  0.12120654263E+02 -0.47207781484E+02  0.50238046872E+02  0.00000000000E+00 0.  1.
</event>
<event>
 5   1  0.6181100E+00  0.8051661E+02  0.7957747E-01  0.1326182E+00
       -2   -1    0    0    0  501  0.00000000000E+00  0.00000000000E+00  0.15919067638E+02  0.15919067638E+02  0.00000000000E+00 0.  1.
        1   -1    0    0  501    0  0.00000000000E+00  0.00000000000E+00 -0.10181067468E+03  0.10181067468E+03  0.00000000000E+00 0. -1.
      -24    2    1    2    0    0  0.00000000000E+00  0.00000000000E+00 -0.85891607037E+02  0.11772974231E+03  0.80516607392E+02 0.  0.
       11    1    3    3    0    0 -0.22388005910E+02  0.15260215343E+02 -0.86484249670E+02  0.90629037411E+02  0.00000000000E+00 0. -1.
      -12    1    3    3    0    0  0.22388005910E+02 -0.15260215343E+02  0.59264263316E+00  0.27100704903E+02  0.00000000000E+00 0.  1.
</event>
<event>
 5   1  0.6181100E+00  0.8323552E+02  0.7957747E-01  0.1319093E+00
        1   -1    0    0  501    0  0.00000000000E+00  0.00000000000E+00  0.67575695679E+02  0.67575695679E+02  0.00000000000E+00 0. -1.
       -2   -1    0    0    0  501  0.00000000000E+00  0.00000000000E+00 -0.25631076841E+02  0.25631076841E+02  0.00000000000E+00 0.  1.
      -24    2    1    2    0    0  0.00000000000E+00  0.00000000000E+00  0.41944618838E+02  0.93206772520E+02  0.83235517624E+02 0.  0.
       11    1    3    3    0    0 -0.60642368545E+01 -0.28552425446E+02  0.54191230322E+02  0.61552460644E+02  0.00000000000E+00 0. -1.
      -12    1    3    3    0    0  0.60642368545E+01  0.28552425446E+02 -0.12246611484E+02  0.31654311876E+02  0.00000000000E+00 0.  1.
</event>
<event>
 5   1  0.6181100E+00  0.8229788E+02  0.7957747E-01  0.1321503E+00
       -4   -1    0    0    0  501  0.00000000000E+00  0.00000000000E+00  0.53685433620E+02  0.53685433620E+02  0.00000000000E+00 0.  1.
        3   -1    0    0  501    0  0.00000000000E+00  0.00000000000E+00 -0.31539936686E+02  0.31539936686E+02  0.00000000000E+00 0. -1.
      -24    2    1    2    0    0  0.00000000000E+00  0.00000000000E+00  0.22145496934E+02  0.85225370305E+02  0.82297877915E+02 0.  0.
       11    1    3    3    0    0 -0.16015613262E+02  0.37888378762E+02  0.99354736607E+01  0.42317168505E+02  0.00000000000E+00 0. -1.
      -12    1    3    3    0    0  0.16015613262E+02 -0.37888378762E+02  0.12210023273E+02  0.42908201800E+02  0.00000000000E+00 0.  1.
</event>
<event>
 6   2  0.6181100E+00  0.1311236E+03  0.7957747E-01  0.1229181E+00
       21   -1    0    0  501  502  0.00000000000E+00  0.00000000000E+00  0.18712975882E+02  0.18712975882E+02  0.00000000000E+00 0. -1.
        1   -1    0    0  502    0  0.00000000000E+00  0.00000000000E+00 -0.94672887118E+03  0.94672887118E+03  0.00000000000E+00 0. -1.
      -24    2    1    2    0    0 -0.46053676642E+02 -0.92784690814E+02 -0.27978890732E+03  0.30899065472E+03  0.80395597292E+02 0.  0.
       11    1    3    3    0    0 -0.43182316114E+02 -0.34834453264E+02 -0.60205413878E+02  0.81870894825E+02  0.00000000000E+00 0. -1.
      -12    1    3    3    0    0 -0.28713605285E+01 -0.57950237551E+02 -0.21958349344E+03  0.22711975990E+03  0.00000000000E+00 0.  1.
        2    1    1    2  501    0  0.46053676642E+02  0.92784690814E+02 -0.64822698798E+03  0.65645119234E+03  0.00000000000E+00 0. -1.
</event>
<event>
 6   2  0.6181100E+00  0.8229649E+02  0.7957747E-01  0.1321506E+00
       21   -1    0    0  501  502  0.00000000000E+00  0.00000000000E+00  0.21508313154E+03  0.21508313154E+03  0.00000000000E+00 0. -1.
        3   -1    0    0  502    0  0.00000000000E+00  0.00000000000E+00 -0.29778098491E+02  0.29778098491E+02  0.00000000000E+00 0. -1.
      -24    2    1    2    0    0  0.25468915193E+02  0.10988321312E+02  0.30776654704E+02  0.87863049913E+02  0.77480992630E+02 0.  0.
       11    1    3    3    0    0  0.45986030083E+02  0.19149997318E+02 -0.20930450282E+00  0.49814467461E+02  0.00000000000E+00 0. -1.
      -12    1    3    3    0    0 -0.20517114890E+02 -0.81616760061E+01  0.30985959207E+02  0.38048582452E+02  0.00000000000E+00 0.  1.
        4    1    1    2  501    0 -0.25468915193E+02 -0.10988321312E+02  0.15452837834E+03  0.15699818012E+03  0.00000000000E+00 0. -1.
</event>
<event>
 6   2  0.6181100E+00  0.9521658E+02  0.7957747E-01  0.1291146E+00
        1   -1    0    0  502    0  0.00000000000E+00  0.00000000000E+00  0.33698726308E+03  0.33698726308E+03  0.00000000000E+00 0. -1.
       21   -1    0    0  501  502  0.00000000000E+00  0.00000000000E+00 -0.23101328188E+02  0.23101328188E+02  0.00000000000E+00 0. -1.
      -24    2    1    2    0    0 -0.26067271778E+02 -0.33574157230E+02  0.30095708227E+03  0.31566020033E+03  0.85202523495E+02 0.  0.
       11    1    3    3    0    0 -0.37529006297E+02 -0.54503653440E+02  0.25970824321E+03  0.26800642929E+03  0.00000000000E+00 0. -1.
      -12    1    3    3    0    0  0.11461734519E+02  0.20929496210E+02  0.41248839065E+02  0.47653771037E+02  0.00000000000E+00 0.  1.
        2    1    1    2  501    0  0.26067271778E+02  0.33574157230E+02  0.12928852625E+02  0.44428390943E+02  0.00000000000E+00 0. -1.
</event>
<event>
 5   1  0.6181100E+00  0.7809395E+02  0.7957747E-01  0.1332771E+00
       -2   -1    0    0    0  501  0.00000000000E+00  0.00000000000E+00  0.17519375085E+03  0.17519375085E+03  0.00000000000E+00 0.  1.
        1   -1    0    0  501    0  0.00000000000E+00  0.00000000000E+00 -0.87027427310E+01  0.87027427310E+01  0.00000000000E+00 0. -1.
      -24    2    1    2    0    0  0.00000000000E+00  0.00000000000E+00  0.16649100812E+03  0.18389649358E+03  0.78093947056E+02 0.  0.
       11    1    3    3    0    0  0.36347088487E+02  0.49574638482E+01  0.51742139831E+02  0.63426621568E+02  0.00000000000E+00 0. -1.
      -12    1    3    3    0    0 -0.36347088487E+02 -0.49574638482E+01  0.11474886829E+03  0.12046987201E+03  0.00000000000E+00 0.  1.
</event>
<event>
 5   1  0.6181100E+00  0.7834528E+02  0.7957747E-01  0.1332075E+00
       -2   -1    0    0    0  501  0.00000000000E+00  0.00000000000E+00  0.10327068863E+03  0.10327068863E+03  0.00000000000E+00 0.  1.
        1   -1    0    0  501    0  0.00000000000E+00  0.00000000000E+00 -0.14858967386E+02  0.14858967386E+02  0.00000000000E+00 0. -1.
      -24    2    1    2    0    0  0.00000000000E+00  0.00000000000E+00  0.88411721248E+02  0.11812965602E+03  0.78345281782E+02 0.  0.
       11    1    3    3    0    0 -0.15687429168E+02  0.33944326084E+02  0.26610114795E+02  0.45895652481E+02  0.00000000000E+00 0. -1.
      -12    1    3    3    0    0  0.15687429168E+02 -0.33944326084E+02  0.61801606452E+02  0.72234003539E+02  0.00000000000E+00 0.  1.
</event>
<event>
 5   1  0.6181100E+00  0.8156834E+02  0.7957747E-01  0.1323403E+00
       -4   -1    0    0    0  501  0.00000000000E+00  0.00000000000E+00  0.19524728734E+02  0.19524728734E+02  0.00000000000E+00 0.  1.
        3   -1    0    0  501    0  0.00000000000E+00  0.00000000000E+00 -0.85191885048E+02  0.85191885048E+02  0.00000000000E+00 0. -1.
      -24    2    1    2    0    0  0.00000000000E+00  0.00000000000E+00 -0.65667156314E+02  0.10471661378E+03  0.81568338120E+02 0.  0.
       11    1    3    3    0    0 -0.75129488271E+01 -0.37598407916E+02 -0.50680741451E+02  0.63550155247E+02  0.00000000000E+00 0. -1.
      -12    1    3    3    0    0  0.75129488271E+01  0.37598407916E+02 -0.14986414863E+02  0.41166458535E+02  0.00000000000E+00 0.  1.
</event>
<event>
 5   1  0.6181100E+00  0.7477736E+02  0.7957747E-01  0.1342244E+00
        3   -1    0    0  501    0  0.00000000000E+00  0.00000000000E+00  0.36335717954E+02  0.36335717954E+02  0.00000000000E+00 0. -1.
       -4   -1    0    0    0  501  0.00000000000E+00  0.00000000000E+00 -0.38472160247E+02  0.38472160247E+02  0.00000000000E+00 0.  1.
      -24    2    1    2    0    0  0.00000000000E+00  0.00000000000E+00 -0.21364422931E+01  0.74807878201E+02  0.74777364592E+02 0.  0.
       11    1    3    3    0    0  0.34917177712E+02  0.22672478010E+01  0.12111518210E+02  0.37027538202E+02  0.00000000000E+00 0. -1.
      -12    1    3    3    0    0 -0.34917177712E+02 -0.22672478010E+01 -0.14247960503E+02  0.37780339999E+02  0.00000000000E+00 0.  1.
</event>
<event>
 4   3  0.6181100E+00  0.2156005E+03  0.7957747E-01  0.1143866E+00
       21   -1    0    0  503  502  0.00000000000E+00  0.00000000000E+00  0.10294127528E+04  0.10294127528E+04  0.00000000000E+00 0.  1.
       21   -1    0    0  501  503  0.00000000000E+00  0.00000000000E+00 -0.60407404259E+02  0.60407404259E+02  0.00000000000E+00 0. -1.
        6    1    1    2  501    0 -0.12635076570E+03 -0.24291401350E+02  0.21069689539E+03  0.30145774148E+03  0.17300000000E+03 0. -1.
       -6    1    1    2    0  502  0.12635076570E+03  0.24291401350E+02  0.75830845319E+03  0.78836241561E+03  0.17300000000E+03 0.  1.
</event>
<event>
 5   1  0.6181100E+00  0.7964377E+02  0.7957747E-01  0.1328525E+00
       -2   -1    0    0    0  501  0.00000000000E+00  0.00000000000E+00  0.79181331685E+01  0.79181331685E+01  0.00000000000E+00 0.  1.
        1   -1    0    0  501    0  0.00000000000E+00  0.00000000000E+00 -0.20027225034E+03  0.20027225034E+03  0.00000000000E+00 0. -1.
      -24    2    1    2    0    0  0.00000000000E+00  0.00000000000E+00 -0.19235411717E+03  0.20819038351E+03  0.79643765560E+02 0.  0.
       11    1    3    3    0    0  0.37464099673E+02 -0.12149811948E+02 -0.11155444073E+03  0.11830287376E+03  0.00000000000E+00 0. -1.
      -12    1    3    3    0    0 -0.37464099673E+02  0.12149811948E+02 -0.80799676442E+02  0.89887509743E+02  0.00000000000E+00 0.  1.
</event>
<event>
 6   2  0.6181100E+00  0.8314893E+02  0.7957747E-01  0.1319314E+00
        3   -1    0    0  502    0  0.00000000000E+00  0.00000000000E+00  0.21843274967E+02  0.21843274967E+02  0.00000000000E+00 0. -1.
       -4   -1    0    0    0  501  0.00000000000E+00  0.00000000000E+00 -0.13488702861E+03  0.13488702861E+03  0.00000000000E+00 0.  1.
      -24    2    1    2    0    0 -0.20204126943E+01 -0.20686872489E+02 -0.10613426272E+03  0.13482665489E+03  0.80509107466E+02 0.  0.
       11    1    3    3    0    0  0.12536694148E+02  0.49790187439E+01  0.88391588467E+01  0.16127307801E+02  0.00000000000E+00 0. -1.
      -12    1    3    3    0    0 -0.14557106842E+02 -0.25665891233E+02 -0.11497342157E+03  0.11869934709E+03  0.00000000000E+00 0.  1.
       21    1    1    2  502  501  0.20204126943E+01  0.20686872489E+02 -0.69094909182E+01  0.21903648682E+02  0.00000000000E+00 0. -1.
</event>
<event>
 5   1  0.6181100E+00  0.8138301E+02  0.7957747E-01  0.1323889E+00
       -2   -1    0    0    0  501  0.00000000000E+00  0.00000000000E+00  0.28047773147E+01  0.28047773147E+01  0.00000000000E+00 0.  1.
        1   -1    0    0  501    0  0.00000000000E+00  0.00000000000E+00 -0.59034944634E+03  0.59034944634E+03  0.00000000000E+00 0. -1.
      -24    2    1    2    0    0  0.00000000000E+00  0.00000000000E+00 -0.58754466903E+03  0.59315422366E+03  0.81383013826E+02 0.  0.
       11    1    3    3    0    0  0.23518687982E+02  0.25893809469E+02 -0.14225353059E+03  0.14649124553E+03  0.00000000000E+00 0. -1.
      -12    1    3    3    0    0 -0.23518687982E+02 -0.25893809469E+02 -0.44529113844E+03  0.44666297813E+03  0.00000000000E+00 0.  1.
</event>
<event>
 5   1  0.6181100E+00  0.8075942E+02  0.7957747E-01  0.1325536E+00
       -2   -1    0    0    0  501  0.00000000000E+00  0.00000000000E+00  0.23075590782E+02  0.23075590782E+02  0.00000000000E+00 0.  1.
        1   -1    0    0  501    0  0.00000000000E+00  0.00000000000E+00 -0.70659996835E+02  0.70659996835E+02  0.00000000000E+00 0. -1.
      -24    2    1    2    0    0  0.00000000000E+00  0.00000000000E+00 -0.47584406053E+02  0.93735587617E+02  0.80759424753E+02 0.  0.
       11    1    3    3    0    0  0.11120204138E+01  0.18207965685E+02 -0.65604841418E+02  0.68093772265E+02  0.00000000000E+00 0. -1.
      -12    1    3    3    0    0 -0.11120204138E+01 -0.18207965685E+02  0.18020435365E+02  0.25641815352E+02  0.00000000000E+00 0.  1.
</event>
<event>
 5   1  0.6181100E+00  0.8074080E+02  0.7957747E-01  0.1325586E+00
        1   -1    0    0  501    0  0.00000000000E+00  0.00000000000E+00  0.12688862367E+02  0.12688862367E+02  0.00000000000E+00 0. -1.
       -2   -1    0    0    0  501  0.00000000000E+00  0.00000000000E+00 -0.12844092148E+03  0.12844092148E+03  0.00000000000E+00 0.  1.
      -24    2    1    2    0    0  0.00000000000E+00  0.00000000000E+00 -0.11575205911E+03  0.14112978385E+03  0.80740799475E+02 0.  0.
       11    1    3    3    0    0  0.30822123596E+02 -0.13504844236E+02 -0.18893322300E+02  0.38591990728E+02  0.00000000000E+00 0. -1.
      -12    1    3    3    0    0 -0.30822123596E+02  0.13504844236E+02 -0.96858736811E+02  0.10253779312E+03  0.00000000000E+00 0.  1.
</event>
<event>
 5   1  0.6181100E+00  0.8336506E+02  0.7957747E-01  0.1318763E+00
       -2   -1    0    0    0  501  0.00000000000E+00  0.00000000000E+00  0.65934360193E+02  0.65934360193E+02  0.00000000000E+00 0.  1.
        1   -1    0    0  501    0  0.00000000000E+00  0.00000000000E+00 -0.26350956730E+02  0.26350956730E+02  0.00000000000E+00 0. -1.
      -24    2    1    2    0    0  0.00000000000E+00  0.00000000000E+00  0.39583403462E+02  0.92285316923E+02  0.83365063965E+02 0.  0.
       11    1    3    3    0    0  0.15321581278E+02  0.31501509785E+02 -0.52162004280E+01  0.35416164649E+02  0.00000000000E+00 0. -1.
      -12    1    3    3    0    0 -0.15321581278E+02 -0.31501509785E+02  0.44799603890E+02  0.56869152274E+02  0.00000000000E+00 0.  1.
</event>
<event>
 5   1  0.6181100E+00  0.8812217E+02  0.7957747E-01  0.1307091E+00
        1   -1    0    0  501    0  0.00000000000E+00  0.00000000000E+00  0.18252121101E+02  0.18252121101E+02  0.00000000000E+00 0. -1.
       -2   -1    0    0    0  501  0.00000000000E+00  0.00000000000E+00 -0.10636457404E+03  0.10636457404E+03  0.00000000000E+00 0.  1.
      -24    2    1    2    0    0  0.00000000000E+00  0.00000000000E+00 -0.88112452935E+02  0.12461669514E+03  0.88122167158E+02 0.  0.
       11    1    3    3    0    0  0.13148459043E+02  0.18435294170E+02  0.93943032109E+01  0.24515198942E+02  0.00000000000E+00 0. -1.
      -12    1    3    3    0    0 -0.13148459043E+02 -0.18435294170E+02 -0.97506756146E+02  0.10010149619E+03  0.00000000000E+00 0.  1.
</event>
<event>
 5   1  0.6181100E+00  0.7992105E+02  0.7957747E-01  0.1327777E+00
       -2   -1    0    0    0  501  0.00000000000E+00  0.00000000000E+00  0.81222075326E+02  0.81222075326E+02  0.00000000000E+00 0.  1.
        1   -1    0    0  501    0  0.00000000000E+00  0.00000000000E+00 -0.19660218106E+02  0.19660218106E+02  0.00000000000E+00 0. -1.
      -24    2    1    2    0    0  0.00000000000E+00  0.00000000000E+00  0.61561857221E+02  0.10088229343E+03  0.79921053945E+02 0.  0.
       11    1    3    3    0    0  0.49298637876E+01  0.39102924647E+02  0.22455519654E+02  0.45360694835E+02  0.00000000000E+00 0. -1.
      -12    1    3    3    0    0 -0.49298637876E+01 -0.39102924647E+02  0.39106337567E+02  0.55521598598E+02  0.00000000000E+00 0.  1.
</event>
<event>
 6   2  0.6181100E+00  0.8388831E+02  0.7957747E-01  0.1317436E+00
       -2   -1    0    0    0  501  0.00000000000E+00  0.00000000000E+00  0.50738825698E+01  0.50738825698E+01  0.00000000000E+00 0.  1.
        1   -1    0    0  502    0  0.00000000000E+00  0.00000000000E+00 -0.67520189865E+03  0.67520189865E+03  0.00000000000E+00 0. -1.
      -24    2    1    2    0    0  0.73586955179E+01 -0.19264467269E+02 -0.36780618493E+03  0.37725142627E+03  0.81314075386E+02 0.  0.
       11    1    3    3    0    0  0.41398024803E+02 -0.15600834186E+02 -0.13823955480E+03  0.14514598512E+03  0.00000000000E+00 0. -1.
      -12    1    3    3    0    0 -0.34039329285E+02 -0.36636330833E+01 -0.22956663013E+03  0.23210544116E+03  0.00000000000E+00 0.  1.
       21    1    1    2  502  501 -0.73586955179E+01  0.19264467269E+02 -0.30232183115E+03  0.30302435494E+03  0.00000000000E+00 0.  1.
</event>
<event>
 6   2  0.6181100E+00  0.8730181E+02  0.7957747E-01  0.1309043E+00
       -2   -1    0    0    0  501  0.00000000000E+00  0.00000000000E+00  0.86287006961E+02  0.86287006961E+02  0.00000000000E+00 0.  1.
        1   -1    0    0  502    0  0.00000000000E+00  0.00000000000E+00 -0.50869343355E+02  0.50869343355E+02  0.00000000000E+00 0. -1.
      -24    2    1    2    0    0  0.25708253591E+02  0.26305613097E+02  0.17911269693E+01  0.87320183236E+02  0.79175164549E+02 0.  0.
       11    1    3    3    0    0  0.37773662769E+02  0.33701558395E+02 -0.25421927585E+02  0.56647321555E+02  0.00000000000E+00 0. -1.
      -12    1    3    3    0    0 -0.12065409178E+02 -0.73959452976E+01  0.27213054555E+02  0.30672861681E+02  0.00000000000E+00 0.  1.
       21    1    1    2  502  501 -0.25708253591E+02 -0.26305613097E+02  0.33626536636E+02  0.49836167080E+02  0.00000000000E+00 0.  1.
</event>
<event>
 5   1  0.6181100E+00  0.7971059E+02  0.7957747E-01  0.1328345E+00
       -2   -1    0    0    0  501  0.00000000000E+00  0.00000000000E+00  0.38870760902E+01  0.38870760902E+01  0.00000000000E+00 0.  1.
        1   -1    0    0  501    0  0.00000000000E+00  0.00000000000E+00 -0.40864769480E+03  0.40864769480E+03  0.00000000000E+00 0. -1.
      -24    2    1    2    0    0  0.00000000000E+00  0.00000000000E+00 -0.40476061871E+03  0.41253477089E+03  0.79710593619E+02 0.  0.
       11    1    3    3    0    0 -0.19139311791E+02  0.30285924401E+02 -0.11201138660E+03  0.11760145067E+03  0.00000000000E+00 0. -1.
      -12    1    3    3    0    0  0.19139311791E+02 -0.30285924401E+02 -0.29274923211E+03  0.29493332022E+03  0.00000000000E+00 0.  1.
</event>
<event>
 4   3  0.6181100E+00  0.1780744E+03  0.7957747E-01  0.1175233E+00
       21   -1    0    0  503  502  0.00000000000E+00  0.00000000000E+00  0.10495915120E+03  0.10495915120E+03  0.00000000000E+00 0. -1.
       21   -1    0    0  501  503  0.00000000000E+00  0.00000000000E+00 -0.38841707224E+03  0.38841707224E+03  0.00000000000E+00 0. -1.
        6    1    1    2  501    0 -0.10273055135E+02  0.40938647185E+02 -0.25800523521E+03  0.31349196145E+03  0.17300000000E+03 0. -1.
       -6    1    1    2    0  502  0.10273055135E+02 -0.40938647185E+02 -0.25452685829E+02  0.17988426199E+03  0.17300000000E+03 0. -1.
</event>
<event>
 5   1  0.6181100E+00  0.8073207E+02  0.7957747E-01  0.1325609E+00
        1   -1    0    0  501    0  0.00000000000E+00  0.00000000000E+00  0.13088304973E+02  0.13088304973E+02  0.00000000000E+00 0. -1.
       -2   -1    0    0    0  501  0.00000000000E+00  0.00000000000E+00 -0.12449410208E+03  0.12449410208E+03  0.00000000000E+00 0.  1.
      -24    2    1    2    0    0  0.00000000000E+00  0.00000000000E+00 -0.11140579711E+03  0.13758240706E+03  0.80732069844E+02 0.  0.
       11    1    3    3    0    0 -0.91666580192E+01  0.35256199297E+02 -0.26068220207E+02  0.44794858107E+02  0.00000000000E+00 0. -1.
      -12    1    3    3    0    0  0.91666580192E+01 -0.35256199297E+02 -0.85337576903E+02  0.92787548948E+02  0.00000000000E+00 0.  1.
</event>
<event>
 5   1  0.6181100E+00  0.7974628E+02  0.7957747E-01  0.1328248E+00
       -4   -1    0    0    0  501  0.00000000000E+00  0.00000000000E+00  0.23373090234E+03  0.23373090234E+03  0.00000000000E+00 0.  1.
        3   -1    0    0  501    0  0.00000000000E+00  0.00000000000E+00 -0.68021270473E+01  0.68021270473E+01  0.00000000000E+00 0. -1.
      -24    2    1    2    0    0  0.00000000000E+00  0.00000000000E+00  0.22692877529E+03  0.24053302939E+03  0.79746279979E+02 0.  0.
       11    1    3    3    0    0 -0.20486290933E+02  0.14916953772E+02  0.20612357670E+02  0.32666082023E+02  0.00000000000E+00 0. -1.
      -12    1    3    3    0    0  0.20486290933E+02 -0.14916953772E+02  0.20631641762E+03  0.20786694737E+03  0.00000000000E+00 0.  1.
</event>
<event>
 4   3  0.6181100E+00  0.1995535E+03  0.7957747E-01  0.1156349E+00
       21   -1    0    0  501  502  0.00000000000E+00  0.00000000000E+00  0.10449799265E+03  0.10449799265E+03  0.00000000000E+00 0.  1.
       21   -1    0    0  502  503  0.00000000000E+00  0.00000000000E+00 -0.43562012274E+03  0.43562012274E+03  0.00000000000E+00 0. -1.
        6    1    1    2  501    0  0.10524909111E+02 -0.98903046624E+02 -0.69999727983E+02  0.21147469887E+03  0.17300000000E+03 0. -1.
       -6    1    1    2    0  503 -0.10524909111E+02  0.98903046624E+02 -0.26112240211E+03  0.32864341653E+03  0.17300000000E+03 0. -1.
</event>
<event>
 6   2  0.6181100E+00  0.8736892E+02  0.7957747E-01  0.1308883E+00
       21   -1    0    0  501  502  0.00000000000E+00  0.00000000000E+00  0.35015818293E+02  0.35015818293E+02  0.00000000000E+00 0. -1.
        1   -1    0    0  502    0  0.00000000000E+00  0.00000000000E+00 -0.16855511545E+03  0.16855511545E+03  0.00000000000E+00 0. -1.
      -24    2    1    2    0    0 -0.20211586821E+02  0.45039186014E+02 -0.36480878960E+02  0.94679368129E+02  0.72085308496E+02 0.  0.
       11    1    3    3    0    0 -0.12398880508E+02  0.63608711267E+02 -0.17802300201E+02  0.67206564258E+02  0.00000000000E+00 0. -1.
      -12    1    3    3    0    0 -0.78127063129E+01 -0.18569525253E+02 -0.18678578759E+02  0.27472803871E+02  0.00000000000E+00 0.  1.
        2    1    1    2  501    0  0.20211586821E+02 -0.45039186014E+02 -0.97058418192E+02  0.10889156561E+03  0.00000000000E+00 0. -1.
</event>
<event>
 5   1  0.6181100E+00  0.7790504E+02  0.7957747E-01  0.1333296E+00
       -2   -1    0    0    0  501  0.00000000000E+00  0.00000000000E+00  0.50164174764E+01  0.50164174764E+01  0.00000000000E+00 0.  1.
        1   -1    0    0  501    0  0.00000000000E+00  0.00000000000E+00 -0.30246662498E+03  0.30246662498E+03  0.00000000000E+00 0. -1.
      -24    2    1    2    0    0  0.00000000000E+00  0.00000000000E+00 -0.29745020750E+03  0.30748304245E+03  0.77905041264E+02 0.  0.
       11    1    3    3    0    0 -0.11789469519E+02 -0.28577698007E+02 -0.55189309787E+02  0.63257697790E+02  0.00000000000E+00 0. -1.
      -12    1    3    3    0    0  0.11789469519E+02  0.28577698007E+02 -0.24226089771E+03  0.24422534466E+03  0.00000000000E+00 0.  1.
</event>
<event>
 6   2  0.6181100E+00  0.8799211E+02  0.7957747E-01  0.1307399E+00
        1   -1    0    0  502    0  0.00000000000E+00  0.00000000000E+00  0.13292016175E+03  0.13292016175E+03  0.00000000000E+00 0. -1.
       21   -1    0    0  501  502  0.00000000000E+00  0.00000000000E+00 -0.28206750520E+02  0.28206750520E+02  0.00000000000E+00 0. -1.
      -24    2    1    2    0    0  0.18994925519E+02  0.27875387502E+02  0.67497221764E+02  0.11089854198E+03  0.81269719102E+02 0.  0.
       11    1    3    3    0    0  0.33614026860E+02 -0.99603900051E+01  0.60230466599E+02  0.69690898096E+02  0.00000000000E+00 0. -1.
      -12    1    3    3    0    0 -0.14619101340E+02  0.37835777507E+02  0.72667551652E+01  0.41207643881E+02  0.00000000000E+00 0.  1.
        2    1    1    2  501    0 -0.18994925519E+02 -0.27875387502E+02  0.37216189464E+02  0.50228370291E+02  0.00000000000E+00 0. -1.
</event>
<event>
 5   1  0.6181100E+00  0.8251294E+02  0.7957747E-01  0.1320947E+00
       -4   -1    0    0    0  501  0.00000000000E+00  0.00000000000E+00  0.22670565402E+02  0.22670565402E+02  0.00000000000E+00 0.  1.
        3   -1    0    0  501    0  0.00000000000E+00  0.00000000000E+00 -0.75079570769E+02  0.75079570769E+02  0.00000000000E+00 0. -1.
      -24    2    1    2    0    0  0.00000000000E+00  0.00000000000E+00 -0.52409005367E+02  0.97750136170E+02  0.82512940062E+02 0.  0.
       11    1    3    3    0    0  0.36740178549E+02  0.72212452397E+01 -0.46727225325E+02  0.59878382487E+02  0.00000000000E+00 0. -1.
      -12    1    3    3    0    0 -0.36740178549E+02 -0.72212452397E+01 -0.56817800421E+01  0.37871753684E+02  0.00000000000E+00 0.  1.
</event>
<event>
 6   2  0.6181100E+00  0.8451476E+02  0.7957747E-01  0.1315863E+00
       21   -1    0    0  501  502  0.00000000000E+00  0.00000000000E+00  0.71863376623E+02  0.71863376623E+02  0.00000000000E+00 0. -1.
        1   -1    0    0  502    0  0.00000000000E+00  0.00000000000E+00 -0.73540440900E+02  0.73540440900E+02  0.00000000000E+00 0. -1.
      -24    2    1    2    0    0 -0.33917729634E+01 -0.26703625528E+02 -0.43971991501E+02  0.95269511812E+02  0.80113395285E+02 0.  0.
       11    1    3    3    0    0 -0.19964771233E+02 -0.23317939583E+02 -0.62835282870E+02  0.69932761779E+02  0.00000000000E+00 0. -1.
      -12    1    3    3    0    0  0.16572998269E+02 -0.33856859451E+01  0.18863291369E+02  0.25336750033E+02  0.00000000000E+00 0.  1.
        2    1    1    2  501    0  0.33917729634E+01  0.26703625528E+02  0.42294927224E+02  0.50134305710E+02  0.00000000000E+00 0. -1.
</event>
<event>
 5   1  0.6181100E+00  0.6904948E+02  0.7957747E-01  0.1359994E+00
       -2   -1    0    0    0  501  0.00000000000E+00  0.00000000000E+00  0.69083235684E+01  0.69083235684E+01  0.00000000000E+00 0.  1.
        1   -1    0    0  501    0  0.00000000000E+00  0.00000000000E+00 -0.17253933989E+03  0.17253933989E+03  0.00000000000E+00 0. -1.
      -24    2    1    2    0    0  0.00000000000E+00  0.00000000000E+00 -0.16563101632E+03  0.17944766346E+03  0.69049477573E+02 0.  0.
       11    1    3    3    0    0 -0.32843395113E+02 -0.96990805934E+01 -0.94202055934E+02  0.10023366754E+03  0.00000000000E+00 0. -1.
      -12    1    3    3    0    0  0.32843395113E+02  0.96990805934E+01 -0.71428960391E+02  0.79213995919E+02  0.00000000000E+00 0.  1.
</event>
<event>
 5   1  0.6181100E+00  0.8017110E+02  0.7957747E-01  0.1327106E+00
        1   -1    0    0  501    0  0.00000000000E+00  0.00000000000E+00  0.18723945580E+03  0.18723945580E+03  0.00000000000E+00 0. -1.
       -2   -1    0    0    0  501  0.00000000000E+00  0.00000000000E+00 -0.85817982675E+01  0.85817982675E+01  0.00000000000E+00 0.  1.
      -24    2    1    2    0    0  0.00000000000E+00  0.00000000000E+00  0.17865765753E+03  0.19582125407E+03  0.80171097970E+02 0.  0.
       11    1    3    3    0    0  0.90233020101E+01  0.34574414663E+02  0.44955090751E+02  0.57426216250E+02  0.00000000000E+00 0. -1.
      -12    1    3    3    0    0 -0.90233020101E+01 -0.34574414663E+02  0.13370256678E+03  0.13839503782E+03  0.00000000000E+00 0.  1.
</event>
<event>
 5   1  0.6181100E+00  0.7768043E+02  0.7957747E-01  0.1333923E+00
       -2   -1    0    0    0  501  0.00000000000E+00  0.00000000000E+00  0.14543085836E+02  0.14543085836E+02  0.00000000000E+00 0.  1.
        1   -1    0    0  501    0  0.00000000000E+00  0.00000000000E+00 -0.10373054298E+03  0.10373054298E+03  0.00000000000E+00 0. -1.
      -24    2    1    2    0    0  0.00000000000E+00  0.00000000000E+00 -0.89187457145E+02  0.11827362882E+03  0.77680427146E+02 0.  0.
       11    1    3    3    0    0 -0.76426877724E+01 -0.17270491455E+02 -0.96268699941E+02  0.98103736625E+02  0.00000000000E+00 0. -1.
      -12    1    3    3    0    0  0.76426877724E+01  0.17270491455E+02  0.70812427962E+01  0.20169892192E+02  0.00000000000E+00 0.  1.
</event>
<event>
 6   2  0.6181100E+00  0.8599055E+02  0.7957747E-01  0.1312215E+00
       21   -1    0    0  501  502  0.00000000000E+00  0.00000000000E+00  0.16367215184E+02  0.16367215184E+02  0.00000000000E+00 0.  1.
        1   -1    0    0  502    0  0.00000000000E+00  0.00000000000E+00 -0.18190189850E+03  0.18190189850E+03  0.00000000000E+00 0. -1.
      -24    2    1    2    0    0 -0.21683034409E+02 -0.42993485689E+01 -0.14179078102E+03  0.16582822474E+03  0.83100759075E+02 0.  0.
       11    1    3    3    0    0 -0.18021006550E+02 -0.40614901349E+02 -0.10494786308E+03  0.11396657779E+03  0.00000000000E+00 0. -1.
      -12    1    3    3    0    0 -0.36620278592E+01  0.36315552780E+02 -0.36842917938E+02  0.51861646946E+02  0.00000000000E+00 0.  1.
        2    1    1    2  501    0  0.21683034409E+02  0.42993485689E+01 -0.23743902301E+02  0.32440888949E+02  0.00000000000E+00 0. -1.
</event>
<event>
 5   1  0.6181100E+00  0.7776084E+02  0.7957747E-01  0.1333698E+00
       -2   -1    0    0    0  501  0.00000000000E+00  0.00000000000E+00  0.84163717862E+01  0.84163717862E+01  0.00000000000E+00 0.  1.
        1   -1    0    0  501    0  0.00000000000E+00  0.00000000000E+00 -0.17961268197E+03  0.17961268197E+03  0.00000000000E+00 0. -1.
      -24    2    1    2    0    0  0.00000000000E+00  0.00000000000E+00 -0.17119631018E+03  0.18802905375E+03  0.77760841275E+02 0.  0.
       11    1    3    3    0    0 -0.78223455676E+01 -0.34248194023E+02 -0.12588301364E+03  0.13069300290E+03  0.00000000000E+00 0. -1.
      -12    1    3    3    0    0  0.78223455676E+01  0.34248194023E+02 -0.45313296541E+02  0.57336050853E+02  0.00000000000E+00 0.  1.
</event>
<event>
 5   1  0.6181100E+00  0.8041601E+02  0.7957747E-01  0.1326450E+00
        1   -1    0    0  501    0  0.00000000000E+00  0.00000000000E+00  0.32024622490E+02  0.32024622490E+02  0.00000000000E+00 0. -1.
       -2   -1    0    0    0  501  0.00000000000E+00  0.00000000000E+00 -0.50482514695E+02  0.50482514695E+02  0.00000000000E+00 0.  1.
      -24    2    1    2    0    0  0.00000000000E+00  0.00000000000E+00 -0.18457892206E+02  0.82507137185E+02  0.80416005259E+02 0.  0.
       11    1    3    3    0    0  0.10216830536E+02 -0.11451106747E+01  0.30653300329E+02  0.32331404636E+02  0.00000000000E+00 0. -1.
      -12    1    3    3    0    0 -0.10216830536E+02  0.11451106747E+01 -0.49111192535E+02  0.50175732549E+02  0.00000000000E+00 0.  1.
</event>
<event>
 5   1  0.6181100E+00  0.7889739E+02  0.7957747E-01  0.1330556E+00
        1   -1    0    0  501    0  0.00000000000E+00  0.00000000000E+00  0.37076876689E+02  0.37076876689E+02  0.00000000000E+00 0. -1.
       -2   -1    0    0    0  501  0.00000000000E+00  0.00000000000E+00 -0.41972242219E+02  0.41972242219E+02  0.00000000000E+00 0.  1.
      -24    2    1    2    0    0  0.00000000000E+00  0.00000000000E+00 -0.48953655300E+01  0.79049118907E+02  0.78897392836E+02 0.  0.
       11    1    3    3    0    0  0.29310922836E+02  0.14859613657E+02  0.19417697932E+02  0.38170476923E+02  0.00000000000E+00 0. -1.
      -12    1    3    3    0    0 -0.29310922836E+02 -0.14859613657E+02 -0.24313063462E+02  0.40878641984E+02  0.00000000000E+00 0.  1.
</event>
<event>
 6   2  0.6181100E+00  0.2188322E+03  0.7957747E-01  0.1141495E+00
        1   -1    0    0  502    0  0.00000000000E+00  0.00000000000E+00  0.14716272249E+04  0.14716272249E+04  0.00000000000E+00 0. -1.
       21   -1    0    0  501  502  0.00000000000E+00  0.00000000000E+00 -0.31447320996E+02  0.31447320996E+02  0.00000000000E+00 0. -1.
      -24    2    1    2    0    0  0.54456034993E+02 -0.19586488231E+03  0.60034810753E+03  0.63898776896E+03  0.80987695362E+02 0.  0.
       11    1    3    3    0    0  0.44029747514E+02 -0.19998548171E+03  0.58619311131E+03  0.62093089415E+03  0.00000000000E+00 0. -1.
      -12    1    3    3    0    0  0.10426287478E+02  0.41205994032E+01  0.14154996218E+02  0.18056874811E+02  0.00000000000E+00 0.  1.
        2    1    1    2  501    0 -0.54456034993E+02  0.19586488231E+03  0.83983179640E+03  0.86408677695E+03  0.00000000000E+00 0. -1.
</event>
<event>
 6   2  0.6181100E+00  0.8621541E+02  0.7957747E-01  0.1311667E+00
       -2   -1    0    0    0  501  0.00000000000E+00  0.00000000000E+00  0.12003723235E+03  0.12003723235E+03  0.00000000000E+00 0.  1.
        1   -1    0    0  502    0  0.00000000000E+00  0.00000000000E+00 -0.37062253460E+02  0.37062253460E+02  0.00000000000E+00 0. -1.
      -24    2    1    2    0    0  0.11015593078E+02 -0.24050760095E+02  0.19585951299E+02  0.88412142208E+02  0.82056779424E+02 0.  0.
       11    1    3    3    0    0 -0.21404503795E+01 -0.44014399269E+02 -0.14840119143E+02  0.46498150576E+02  0.00000000000E+00 0. -1.
      -12    1    3    3    0    0  0.13156043457E+02  0.19963639174E+02  0.34426070441E+02  0.41913991632E+02  0.00000000000E+00 0.  1.
       21    1    1    2  502  501 -0.11015593078E+02  0.24050760095E+02  0.63389027588E+02  0.68687343598E+02  0.00000000000E+00 0. -1.
</event>
<event>
 5   1  0.6181100E+00  0.8151165E+02  0.7957747E-01  0.1323551E+00
        1   -1    0    0  501    0  0.00000000000E+00  0.00000000000E+00  0.22524550041E+01  0.22524550041E+01  0.00000000000E+00 0. -1.
       -2   -1    0    0    0  501  0.00000000000E+00  0.00000000000E+00 -0.73743411700E+03  0.73743411700E+03  0.00000000000E+00 0.  1.
      -24    2    1    2    0    0  0.00000000000E+00  0.00000000000E+00 -0.73518166199E+03  0.73968657200E+03  0.81511647439E+02 0.  0.
       11    1    3    3    0    0  0.21794623615E+02 -0.14812485472E+02 -0.85456223201E+02  0.89426961417E+02  0.00000000000E+00 0. -1.
      -12    1    3    3    0    0 -0.21794623615E+02  0.14812485472E+02 -0.64972543879E+03  0.65025961059E+03  0.00000000000E+00 0.  1.
</event>
<event>
 5   1  0.6181100E+00  0.8191986E+02  0.7957747E-01  0.1322484E+00
        1   -1    0    0  501    0  0.00000000000E+00  0.00000000000E+00  0.36376524144E+01  0.36376524144E+01  0.00000000000E+00 0. -1.
       -2   -1    0    0    0  501  0.00000000000E+00  0.00000000000E+00 -0.46120835526E+03  0.46120835526E+03  0.00000000000E+00 0.  1.
      -24    2    1    2    0    0  0.00000000000E+00  0.00000000000E+00 -0.45757070285E+03  0.46484600768E+03  0.81919855641E+02 0.  0.
       11    1    3    3    0    0  0.47780792204E+01 -0.21602238543E+02 -0.33184838570E+02  0.39883834595E+02  0.00000000000E+00 0. -1.
      -12    1    3    3    0    0 -0.47780792204E+01  0.21602238543E+02 -0.42438586428E+03  0.42496217308E+03  0.00000000000E+00 0.  1.
</event>
<event>
 6   2  0.6181100E+00  0.8552345E+02  0.7957747E-01  0.1313361E+00
        1   -1    0    0  502    0  0.00000000000E+00  0.00000000000E+00  0.14789098452E+02  0.14789098452E+02  0.00000000000E+00 0. -1.
       21   -1    0    0  501  502  0.00000000000E+00  0.00000000000E+00 -0.22540641064E+03  0.22540641064E+03  0.00000000000E+00 0. -1.
      -24    2    1    2    0    0 -0.53615800534E+01 -0.26760820852E+02 -0.13506807900E+03  0.15986758923E+03  0.81051662842E+02 0.  0.
       11    1    3    3    0    0 -0.20459927432E+02 -0.50325273147E+02 -0.10819639369E+03  0.12106899420E+03  0.00000000000E+00 0. -1.
      -12    1    3    3    0    0  0.15098347379E+02  0.23564452295E+02 -0.26871685307E+02  0.38798595037E+02  0.00000000000E+00 0.  1.
        2    1    1    2  501    0  0.53615800534E+01  0.26760820852E+02 -0.75549233186E+02  0.80327919855E+02  0.00000000000E+00 0. -1.
</event>
<event>
 6   2  0.6181100E+00  0.1247788E+03  0.7957747E-01  0.1238393E+00
        1   -1    0    0  502    0  0.00000000000E+00  0.00000000000E+00  0.28394057574E+03  0.28394057574E+03  0.00000000000E+00 0. -1.
       21   -1    0    0  501  502  0.00000000000E+00  0.00000000000E+00 -0.42112492863E+02  0.42112492863E+02  0.00000000000E+00 0. -1.
      -24    2    1    2    0    0  0.88351364233E+02  0.31759989212E+02  0.13510497977E+03  0.18391060059E+03  0.82189372630E+02 0.  0.
       11    1    3    3    0    0  0.85653279175E+02  0.12710624665E+02  0.13948665055E+03  0.16417846964E+03  0.00000000000E+00 0. -1.
      -12    1    3    3    0    0  0.26980850585E+01  0.19049364547E+02 -0.43816707843E+01  0.19732130941E+02  0.00000000000E+00 0.  1.
        2    1    1    2  501    0 -0.88351364233E+02 -0.31759989212E+02  0.10672310311E+03  0.14214246802E+03  0.00000000000E+00 0. -1.
</event>
<event>
 5   1  0.6181100E+00  0.8083933E+02  0.7957747E-01  0.1325324E+00
       -2   -1    0    0    0  501  0.00000000000E+00  0.00000000000E+00  0.52004516608E+01  0.52004516608E+01  0.00000000000E+00 0.  1.
        1   -1    0    0  501    0  0.00000000000E+00  0.00000000000E+00 -0.31415523978E+03  0.31415523978E+03  0.00000000000E+00 0. -1.
      -24    2    1    2    0    0  0.00000000000E+00  0.00000000000E+00 -0.30895478812E+03  0.31935569144E+03  0.80839325541E+02 0.  0.
       11    1    3    3    0    0 -0.26784028643E+02  0.29679988457E+02 -0.17800301761E+03  0.18243727740E+03  0.00000000000E+00 0. -1.
      -12    1    3    3    0    0  0.26784028643E+02 -0.29679988457E+02 -0.13095177050E+03  0.13691841404E+03  0.00000000000E+00 0.  1.
</event>
<event>
 5   1  0.6181100E+00  0.8057300E+02  0.7957747E-01  0.1326032E+00
       -2   -1    0    0    0  501  0.00000000000E+00  0.00000000000E+00  0.40136371598E+03  0.40136371598E+03  0.00000000000E+00 0.  1.
        1   -1    0    0  501    0  0.00000000000E+00  0.00000000000E+00 -0.40437188937E+01  0.40437188937E+01  0.00000000000E+00 0. -1.
      -24    2    1    2    0    0  0.00000000000E+00  0.00000000000E+00  0.39731999709E+03  0.40540743488E+03  0.80572998990E+02 0.  0.
       11    1    3    3    0    0  0.51427041186E+00  0.18167918727E+02  0.17757295041E+02  0.25409826290E+02  0.00000000000E+00 0. -1.
      -12    1    3    3    0    0 -0.51427041186E+00 -0.18167918727E+02  0.37956270205E+03  0.37999760859E+03  0.00000000000E+00 0.  1.
</event>
<event>
 5   1  0.6181100E+00  0.8111448E+02  0.7957747E-01  0.1324596E+00
        1   -1    0    0  501    0  0.00000000000E+00  0.00000000000E+00  0.23439691125E+01  0.23439691125E+01  0.00000000000E+00 0. -1.
       -2   -1    0    0    0  501  0.00000000000E+00  0.00000000000E+00 -0.70175392185E+03  0.70175392185E+03  0.00000000000E+00 0.  1.
      -24    2    1    2    0    0  0.00000000000E+00  0.00000000000E+00 -0.69940995273E+03  0.70409789096E+03  0.81114475092E+02 0.  0.
       11    1    3    3    0    0 -0.95973556913E+01 -0.24680437735E+02 -0.83054970707E+02  0.87174316185E+02  0.00000000000E+00 0. -1.
      -12    1    3    3    0    0  0.95973556913E+01  0.24680437735E+02 -0.61635498203E+03  0.61692357477E+03  0.00000000000E+00 0.  1.
</event>
<event>
 6   2  0.6181100E+00  0.1138417E+03  0.7957747E-01  0.1255800E+00
       21   -1    0    0  501  502  0.00000000000E+00  0.00000000000E+00  0.13155031135E+02  0.13155031135E+02  0.00000000000E+00 0. -1.
        1   -1    0    0  502    0  0.00000000000E+00  0.00000000000E+00 -0.77444679440E+03  0.77444679440E+03  0.00000000000E+00 0. -1.
      -24    2    1    2    0    0  0.27805395583E+02  0.74565783516E+02 -0.33145580281E+03  0.35046094550E+03  0.81404723518E+02 0.  0.
       11    1    3    3    0    0  0.39242256820E+02  0.87362908513E+02 -0.29521988570E+03  0.31036593470E+03  0.00000000000E+00 0. -1.
      -12    1    3    3    0    0 -0.11436861237E+02 -0.12797124996E+02 -0.36235917108E+02  0.40095010809E+02  0.00000000000E+00 0.  1.
        2    1    1    2  501    0 -0.27805395583E+02 -0.74565783516E+02 -0.42983596046E+03  0.43714088004E+03  0.00000000000E+00 0. -1.
</event>
<event>
 4   3  0.6181100E+00  0.3098476E+03  0.7957747E-01  0.1088757E+00
       21   -1    0    0  503  502  0.00000000000E+00  0.00000000000E+00  0.13939587273E+03  0.13939587273E+03  0.00000000000E+00 0.  1.
       21   -1    0    0  501  503  0.00000000000E+00  0.00000000000E+00 -0.87953208075E+03  0.87953208075E+03  0.00000000000E+00 0. -1.
        6    1    1    2  501    0  0.39472705978E+01 -0.25702323759E+03 -0.60736061946E+03  0.68183021910E+03  0.17300000000E+03 0. -1.
       -6    1    1    2    0  502 -0.39472705978E+01  0.25702323759E+03 -0.13277558856E+03  0.33709773438E+03  0.17300000000E+03 0.  1.
</event>
<event>
 5   1  0.6181100E+00  0.9013854E+02  0.7957747E-01  0.1302391E+00
       -4   -1    0    0    0  501  0.00000000000E+00  0.00000000000E+00  0.18984477194E+03  0.18984477194E+03  0.00000000000E+00 0.  1.
        3   -1    0    0  501    0  0.00000000000E+00  0.00000000000E+00 -0.10699473940E+02  0.10699473940E+02  0.00000000000E+00 0. -1.
      -24    2    1    2    0    0  0.00000000000E+00  0.00000000000E+00  0.17914529800E+03  0.20054424588E+03  0.90138542033E+02 0.  0.
       11    1    3    3    0    0 -0.19498109280E+02  0.14038569496E+02  0.47368576486E+01  0.24488681455E+02  0.00000000000E+00 0. -1.
      -12    1    3    3    0    0  0.19498109280E+02 -0.14038569496E+02  0.17440844035E+03  0.17605556443E+03  0.00000000000E+00 0.  1.
</event>
<event>
 5   1  0.6181100E+00  0.9004270E+02  0.7957747E-01  0.1302612E+00
       -4   -1    0    0    0  501  0.00000000000E+00  0.00000000000E+00  0.13712128660E+02  0.13712128660E+02  0.00000000000E+00 0.  1.
        3   -1    0    0  501    0  0.00000000000E+00  0.00000000000E+00 -0.14781964470E+03  0.14781964470E+03  0.00000000000E+00 0. -1.
      -24    2    1    2    0    0  0.00000000000E+00  0.00000000000E+00 -0.13410751604E+03  0.16153177336E+03  0.90042700683E+02 0.  0.
       11    1    3    3    0    0  0.17833389092E+02 -0.32609216131E+02 -0.11263310323E+03  0.11860694198E+03  0.00000000000E+00 0. -1.
      -12    1    3    3    0    0 -0.17833389092E+02  0.32609216131E+02 -0.21474412809E+02  0.42924831377E+02  0.00000000000E+00 0.  1.
</event>
<event>
 5   1  0.6181100E+00  0.8080961E+02  0.7957747E-01  0.1325403E+00
        1   -1    0    0  501    0  0.00000000000E+00  0.00000000000E+00  0.55968149071E+02  0.55968149071E+02  0.00000000000E+00 0. -1.
       -2   -1    0    0    0  501  0.00000000000E+00  0.00000000000E+00 -0.29169238342E+02  0.29169238342E+02  0.00000000000E+00 0.  1.
      -24    2    1    2    0    0  0.00000000000E+00  0.00000000000E+00  0.26798910729E+02  0.85137387413E+02  0.80809610315E+02 0.  0.
       11    1    3    3    0    0 -0.11730679368E+02 -0.37301417314E+02  0.26788536267E+01  0.39194142788E+02  0.00000000000E+00 0. -1.
      -12    1    3    3    0    0  0.11730679368E+02  0.37301417314E+02  0.24120057102E+02  0.45943244625E+02  0.00000000000E+00 0.  1.
</event>
<event>
 4   3  0.6181100E+00  0.3252493E+03  0.7957747E-01  0.1081785E+00
       21   -1    0    0  501  502  0.00000000000E+00  0.00000000000E+00  0.12003383936E+03  0.12003383936E+03  0.00000000000E+00 0.  1.
       21   -1    0    0  502  503  0.00000000000E+00  0.00000000000E+00 -0.88510885532E+03  0.88510885532E+03  0.00000000000E+00 0.  1.
        6    1    1    2  501    0 -0.27542348558E+03 -0.18115007570E+00 -0.34961634613E+03  0.47751305605E+03  0.17300000000E+03 0.  1.
       -6    1    1    2    0  503  0.27542348558E+03  0.18115007570E+00 -0.41545866983E+03  0.52762963863E+03  0.17300000000E+03 0.  1.
</event>
<event>
 5   1  0.6181100E+00  0.9270971E+02  0.7957747E-01  0.1296596E+00
        1   -1    0    0  501    0  0.00000000000E+00  0.00000000000E+00  0.22164626944E+02  0.22164626944E+02  0.00000000000E+00 0. -1.
       -2   -1    0    0    0  501  0.00000000000E+00  0.00000000000E+00 -0.96946019726E+02  0.96946019726E+02  0.00000000000E+00 0.  1.
      -24    2    1    2    0    0  0.00000000000E+00  0.00000000000E+00 -0.74781392782E+02  0.11911064667E+03  0.92709705229E+02 0.  0.
       11    1    3    3    0    0 -0.13483505434E+02 -0.26864920375E+02  0.79462769054E+01  0.31091352209E+02  0.00000000000E+00 0. -1.
      -12    1    3    3    0    0  0.13483505434E+02  0.26864920375E+02 -0.82727669687E+02  0.88019294461E+02  0.00000000000E+00 0.  1.
</event>
<event>
 5   1  0.6181100E+00  0.7844618E+02  0.7957747E-01  0.1331796E+00
       -2   -1    0    0    0  501  0.00000000000E+00  0.00000000000E+00  0.23898052146E+03  0.23898052146E+03  0.00000000000E+00 0.  1.
        1   -1    0    0  501    0  0.00000000000E+00  0.00000000000E+00 -0.64375565061E+01  0.64375565061E+01  0.00000000000E+00 0. -1.
      -24    2    1    2    0    0  0.00000000000E+00  0.00000000000E+00  0.23254296495E+03  0.24541807797E+03  0.78446175452E+02 0.  0.
       11    1    3    3    0    0  0.76723980597E+01  0.33560095062E+02  0.57467108700E+02  0.66989657820E+02  0.00000000000E+00 0. -1.
      -12    1    3    3    0    0 -0.76723980597E+01 -0.33560095062E+02  0.17507585625E+03  0.17842842014E+03  0.00000000000E+00 0.  1.
</event>
<event>
 5   1  0.6181100E+00  0.8487353E+02  0.7957747E-01  0.1314968E+00
       -2   -1    0    0    0  501  0.00000000000E+00  0.00000000000E+00  0.11777630599E+03  0.11777630599E+03  0.00000000000E+00 0.  1.
        1   -1    0    0  501    0  0.00000000000E+00  0.00000000000E+00 -0.15290674715E+02  0.15290674715E+02  0.00000000000E+00 0. -1.
      -24    2    1    2    0    0  0.00000000000E+00  0.00000000000E+00  0.10248563127E+03  0.13306698070E+03  0.84873533777E+02 0.  0.
       11    1    3    3    0    0  0.38393441405E+02  0.16131259342E+02  0.38447457235E+02  0.56678751210E+02  0.00000000000E+00 0. -1.
      -12    1    3    3    0    0 -0.38393441405E+02 -0.16131259342E+02  0.64038174037E+02  0.76388229492E+02  0.00000000000E+00 0.  1.
</event>
<event>
 5   1  0.6181100E+00  0.7976851E+02  0.7957747E-01  0.1328188E+00
        3   -1    0    0  501    0  0.00000000000E+00  0.00000000000E+00  0.12004668704E+03  0.12004668704E+03  0.00000000000E+00 0. -1.
       -4   -1    0    0    0  501  0.00000000000E+00  0.00000000000E+00 -0.13251124776E+02  0.13251124776E+02  0.00000000000E+00 0.  1.
      -24    2    1    2    0    0  0.00000000000E+00  0.00000000000E+00  0.10679556227E+03  0.13329781182E+03  0.79768505788E+02 0.  0.
       11    1    3    3    0    0 -0.36237880383E+02  0.13070356371E+02  0.70661958242E+02  0.80480622095E+02  0.00000000000E+00 0. -1.
      -12    1    3    3    0    0  0.36237880383E+02 -0.13070356371E+02  0.36133604024E+02  0.52817189722E+02  0.00000000000E+00 0.  1.
</event>
<event>
 6   2  0.6181100E+00  0.8687153E+02  0.7957747E-01  0.1310077E+00
       -4   -1    0    0    0  501  0.00000000000E+00  0.00000000000E+00  0.48168211229E+02  0.48168211229E+02  0.00000000000E+00 0.  1.
       21   -1    0    0  501  502  0.00000000000E+00  0.00000000000E+00 -0.12718977727E+03  0.12718977727E+03  0.00000000000E+00 0.  1.
      -24    2    1    2    0    0 -0.48112783603E+01 -0.31545417434E+02  0.34378944087E+01  0.86939526749E+02  0.80798517516E+02 0.  0.
       11    1    3    3    0    0 -0.88856400842E+01  0.26017379478E+02 -0.68246557561E+01  0.28327275916E+02  0.00000000000E+00 0. -1.
      -12    1    3    3    0    0  0.40743617240E+01 -0.57562796912E+02  0.10262550165E+02  0.58612250833E+02  0.00000000000E+00 0.  1.
       -3    1    1    2    0  502  0.48112783603E+01  0.31545417434E+02 -0.82459460449E+02  0.88418461749E+02  0.00000000000E+00 0.  1.
</event>
<event>
 5   1  0.6181100E+00  0.6055686E+02  0.7957747E-01  0.1390272E+00
       -2   -1    0    0    0  501  0.00000000000E+00  0.00000000000E+00  0.24087241484E+03  0.24087241484E+03  0.00000000000E+00 0.  1.
        1   -1    0    0  501    0  0.00000000000E+00  0.00000000000E+00 -0.38060955724E+01  0.38060955724E+01  0.00000000000E+00 0. -1.
      -24    2    1    2    0    0  0.00000000000E+00  0.00000000000E+00  0.23706631927E+03  0.24467851041E+03  0.60556863579E+02 0.  0.
       11    1    3    3    0    0 -0.18207337461E+02  0.22210420705E+02  0.79783862799E+02  0.84795487430E+02  0.00000000000E+00 0. -1.
      -12    1    3    3    0    0  0.18207337461E+02 -0.22210420705E+02  0.15728245647E+03  0.15988302299E+03  0.00000000000E+00 0.  1.
</event>
<event>
 5   1  0.6181100E+00  0.8150973E+02  0.7957747E-01  0.1323556E+00
        1   -1    0    0  501    0  0.00000000000E+00  0.00000000000E+00  0.36160387671E+02  0.36160387671E+02  0.00000000000E+00 0. -1.
       -2   -1    0    0    0  501  0.00000000000E+00  0.00000000000E+00 -0.45933113400E+02  0.45933113400E+02  0.00000000000E+00 0.  1.
      -24    2    1    2    0    0  0.00000000000E+00  0.00000000000E+00 -0.97727257293E+01  0.82093501070E+02  0.81509734080E+02 0.  0.
       11    1    3    3    0    0  0.72955869511E+01  0.20692078404E+02  0.29704503128E+02  0.36928920967E+02  0.00000000000E+00 0. -1.
      -12    1    3    3    0    0 -0.72955869511E+01 -0.20692078404E+02 -0.39477228858E+02  0.45164580104E+02  0.00000000000E+00 0.  1.
</event>
<event>
 6   2  0.6181100E+00  0.1115020E+03  0.7957747E-01  0.1259809E+00
        1   -1    0    0  502    0  0.00000000000E+00  0.00000000000E+00  0.15307588517E+03  0.15307588517E+03  0.00000000000E+00 0. -1.
       21   -1    0    0  501  502  0.00000000000E+00  0.00000000000E+00 -0.60506991364E+02  0.60506991364E+02  0.00000000000E+00 0.  1.
      -24    2    1    2    0    0  0.63938164182E+02 -0.46537091087E+02  0.68747530061E+02  0.13099203530E+03  0.78605984098E+02 0.  0.
       11    1    3    3    0    0  0.85581200762E+01  0.21742022811E+02  0.17879499273E+02  0.29421649672E+02  0.00000000000E+00 0. -1.
      -12    1    3    3    0    0  0.55380044106E+02 -0.68279113898E+02  0.50868030788E+02  0.10157038562E+03  0.00000000000E+00 0.  1.
        2    1    1    2  501    0 -0.63938164182E+02  0.46537091087E+02  0.23821363747E+02  0.82590841239E+02  0.00000000000E+00 0. -1.
</event>
<event>
 5   1  0.6181100E+00  0.8194194E+02  0.7957747E-01  0.1322427E+00
        1   -1    0    0  501    0  0.00000000000E+00  0.00000000000E+00  0.16024727287E+02  0.16024727287E+02  0.00000000000E+00 0. -1.
       -2   -1    0    0    0  501  0.00000000000E+00  0.00000000000E+00 -0.10475187705E+03  0.10475187705E+03  0.00000000000E+00 0.  1.
      -24    2    1    2    0    0  0.00000000000E+00  0.00000000000E+00 -0.88727149762E+02  0.12077660434E+03  0.81941937066E+02 0.  0.
       11    1    3    3    0    0  0.37506476689E+01  0.11031174334E+02  0.13531378284E+02  0.17856437589E+02  0.00000000000E+00 0. -1.
      -12    1    3    3    0    0 -0.37506476689E+01 -0.11031174334E+02 -0.10225852805E+03  0.10292016675E+03  0.00000000000E+00 0.  1.
</event>
<event>
 6   2  0.6181100E+00  0.9135351E+02  0.7957747E-01  0.1299626E+00
       -2   -1    0    0    0  501  0.00000000000E+00  0.00000000000E+00  0.12772437764E+03  0.12772437764E+03  0.00000000000E+00 0.  1.
       21   -1    0    0  501  502  0.00000000000E+00  0.00000000000E+00 -0.47351730502E+02  0.47351730502E+02  0.00000000000E+00 0. -1.
      -24    2    1    2    0    0 -0.12017800387E+01  0.43686967154E+02  0.92207383854E+02  0.12979855998E+03  0.80221375959E+02 0.  0.
       11    1    3    3    0    0 -0.13078016763E+02  0.65345554776E+02  0.66367965803E+02  0.94052022499E+02  0.00000000000E+00 0. -1.
      -12    1    3    3    0    0  0.11876236724E+02 -0.21658587621E+02  0.25839418051E+02  0.35746537479E+02  0.00000000000E+00 0.  1.
       -1    1    1    2    0  502  0.12017800387E+01 -0.43686967154E+02 -0.11834736718E+02  0.45277548162E+02  0.00000000000E+00 0.  1.
</event>
<event>
 5   1  0.6181100E+00  0.7972196E+02  0.7957747E-01  0.1328314E+00
       -2   -1    0    0    0  501  0.00000000000E+00  0.00000000000E+00  0.49534207053E+02  0.49534207053E+02  0.00000000000E+00 0.  1.
        1   -1    0    0  501    0  0.00000000000E+00  0.00000000000E+00 -0.32076774753E+02  0.32076774753E+02  0.00000000000E+00 0. -1.
      -24    2    1    2    0    0  0.00000000000E+00  0.00000000000E+00  0.17457432301E+02  0.81610981806E+02  0.79721956880E+02 0.  0.
       11    1    3    3    0    0  0.63550259738E+01 -0.37878267914E+02  0.19646705454E+02  0.43140961632E+02  0.00000000000E+00 0. -1.
      -12    1    3    3    0    0 -0.63550259738E+01  0.37878267914E+02 -0.21892731535E+01  0.38470020174E+02  0.00000000000E+00 0.  1.
</event>
<event>
 5   1  0.6181100E+00  0.8318784E+02  0.7957747E-01  0.1319215E+00
       -4   -1    0    0    0  501  0.00000000000E+00  0.00000000000E+00  0.39136724072E+03  0.39136724072E+03  0.00000000000E+00 0.  1.
        3   -1    0    0  501    0  0.00000000000E+00  0.00000000000E+00 -0.44205387351E+01  0.44205387351E+01  0.00000000000E+00 0. -1.
      -24    2    1    2    0    0  0.00000000000E+00  0.00000000000E+00  0.38694670199E+03  0.39578777946E+03  0.83187836786E+02 0.  0.
       11    1    3    3    0    0  0.18538302348E+02  0.53241231092E+01  0.18142359955E+02  0.26479429102E+02  0.00000000000E+00 0. -1.
      -12    1    3    3    0    0 -0.18538302348E+02 -0.53241231092E+01  0.36880434203E+03  0.36930835036E+03  0.00000000000E+00 0.  1.
</event>
<event>
 5   1  0.6181100E+00  0.7811468E+02  0.7957747E-01  0.1332713E+00
        1   -1    0    0  501    0  0.00000000000E+00  0.00000000000E+00  0.29466741565E+01  0.29466741565E+01  0.00000000000E+00 0. -1.
       -2   -1    0    0    0  501  0.00000000000E+00  0.00000000000E+00 -0.51769414795E+03  0.51769414795E+03  0.00000000000E+00 0.  1.
      -24    2    1    2    0    0  0.00000000000E+00  0.00000000000E+00 -0.51474747380E+03  0.52064082211E+03  0.78114684068E+02 0.  0.
       11    1    3    3    0    0  0.94630147336E+01  0.35881914263E+02 -0.17617575488E+03  0.18004154250E+03  0.00000000000E+00 0. -1.
      -12    1    3    3    0    0 -0.94630147336E+01 -0.35881914263E+02 -0.33857171892E+03  0.34059927961E+03  0.00000000000E+00 0.  1.
</event>
<event>
 6   2  0.6181100E+00  0.8592277E+02  0.7957747E-01  0.1312381E+00
       21   -1    0    0  501  502  0.00000000000E+00  0.00000000000E+00  0.16763538804E+03  0.16763538804E+03  0.00000000000E+00 0.  1.
        3   -1    0    0  502    0  0.00000000000E+00  0.00000000000E+00 -0.18154511604E+02  0.18154511604E+02  0.00000000000E+00 0. -1.
      -24    2    1    2    0    0  0.23098911375E+02  0.78788386724E+01  0.11571381921E+03  0.14412636692E+03  0.82383771943E+02 0.  0.
       11    1    3    3    0    0 -0.23585447336E+02  0.18212066305E+02  0.16668400896E+02  0.34143641774E+02  0.00000000000E+00 0. -1.
      -12    1    3    3    0    0  0.46684358710E+02 -0.10333227632E+02  0.99045418313E+02  0.10998272515E+03  0.00000000000E+00 0.  1.
        4    1    1    2  501    0 -0.23098911375E+02 -0.78788386724E+01  0.33767057231E+02  0.41663532730E+02  0.00000000000E+00 0. -1.
</event>
<event>
 6   2  0.6181100E+00  0.1213390E+03  0.7957747E-01  0.1243646E+00
        1   -1    0    0  502    0  0.00000000000E+00  0.00000000000E+00  0.46268079702E+03  0.46268079702E+03  0.00000000000E+00 0. -1.
       21   -1    0    0  501  502  0.00000000000E+00  0.00000000000E+00 -0.25146592427E+02  0.25146592427E+02  0.00000000000E+00 0. -1.
      -24    2    1    2    0    0  0.18758060102E+02  0.91638374114E+02  0.22536775276E+03  0.25595660709E+03  0.77289742515E+02 0.  0.
       11    1    3    3    0    0 -0.23212013639E+01  0.61647956353E+02  0.20487134680E+03  0.21395823713E+03  0.00000000000E+00 0. -1.
      -12    1    3    3    0    0  0.21079261466E+02  0.29990417761E+02  0.20496405963E+02  0.41998369955E+02  0.00000000000E+00 0.  1.
        2    1    1    2  501    0 -0.18758060102E+02 -0.91638374114E+02  0.21216645183E+03  0.23187078236E+03  0.00000000000E+00 0. -1.
</event>
<event>
 4   3  0.6181100E+00  0.2298199E+03  0.7957747E-01  0.1133759E+00
       21   -1    0    0  503  502  0.00000000000E+00  0.00000000000E+00  0.47306296173E+03  0.47306296173E+03  0.00000000000E+00 0.  1.
       21   -1    0    0  501  503  0.00000000000E+00  0.00000000000E+00 -0.14995996590E+03  0.14995996590E+03  0.00000000000E+00 0.  1.
        6    1    1    2  501    0  0.78140314568E+02 -0.12954635275E+03  0.41002870332E+01  0.22985643047E+03  0.17300000000E+03 0.  1.
       -6    1    1    2    0  502 -0.78140314568E+02  0.12954635275E+03  0.31900270880E+03  0.39316649717E+03  0.17300000000E+03 0.  1.
</event>
<event>
 5   1  0.6181100E+00  0.8069764E+02  0.7957747E-01  0.1325700E+00
       -2   -1    0    0    0  501  0.00000000000E+00  0.00000000000E+00  0.45904998358E+03  0.45904998358E+03  0.00000000000E+00 0.  1.
        1   -1    0    0  501    0  0.00000000000E+00  0.00000000000E+00 -0.35465144943E+01  0.35465144943E+01  0.00000000000E+00 0. -1.
      -24    2    1    2    0    0  0.00000000000E+00  0.00000000000E+00  0.45550346908E+03  0.46259649807E+03  0.80697643593E+02 0.  0.
       11    1    3    3    0    0  0.66184077520E+00 -0.10215597276E+02  0.40216604255E+01  0.10998645985E+02  0.00000000000E+00 0. -1.
      -12    1    3    3    0    0 -0.66184077520E+00  0.10215597276E+02  0.45148180866E+03  0.45159785209E+03  0.00000000000E+00 0.  1.
</event>
<event>
 4   3  0.6181100E+00  0.2570847E+03  0.7957747E-01  0.1116444E+00
       21   -1    0    0  501  502  0.00000000000E+00  0.00000000000E+00  0.81010816042E+03  0.81010816042E+03  0.00000000000E+00 0.  1.
       21   -1    0    0  502  503  0.00000000000E+00  0.00000000000E+00 -0.26668193286E+03  0.26668193286E+03  0.00000000000E+00 0. -1.
        6    1    1    2  501    0  0.18054874536E+03 -0.59713482392E+02  0.72025607978E+03  0.76476229633E+03  0.17300000000E+03 0.  1.
       -6    1    1    2    0  503 -0.18054874536E+03  0.59713482392E+02 -0.17682985222E+03  0.31202779695E+03  0.17300000000E+03 0. -1.
</event>
<event>
 5   1  0.6181100E+00  0.7806189E+02  0.7957747E-01  0.1332860E+00
       -2   -1    0    0    0  501  0.00000000000E+00  0.00000000000E+00  0.55641346212E+02  0.55641346212E+02  0.00000000000E+00 0.  1.
        1   -1    0    0  501    0  0.00000000000E+00  0.00000000000E+00 -0.27379184111E+02  0.27379184111E+02  0.00000000000E+00 0. -1.
      -24    2    1    2    0    0  0.00000000000E+00  0.00000000000E+00  0.28262162101E+02  0.83020530322E+02  0.78061889859E+02 0.  0.
       11    1    3    3    0    0  0.24431281640E+02 -0.16208852860E+02 -0.13269838702E+02  0.32182340698E+02  0.00000000000E+00 0. -1.
      -12    1    3    3    0    0 -0.24431281640E+02  0.16208852860E+02  0.41532000803E+02  0.50838189624E+02  0.00000000000E+00 0.  1.
</event>
<event>
 6   2  0.6181100E+00  0.8444585E+02  0.7957747E-01  0.1316035E+00
       -2   -1    0    0    0  501  0.00000000000E+00  0.00000000000E+00  0.87616620954E+03  0.87616620954E+03  0.00000000000E+00 0.  1.
        1   -1    0    0  502    0  0.00000000000E+00  0.00000000000E+00 -0.19624669934E+02  0.19624669934E+02  0.00000000000E+00 0. -1.
      -24    2    1    2    0    0  0.51558307974E+01  0.27149803479E+02  0.72603566803E+02  0.11136596935E+03  0.79796032463E+02 0.  0.
       11    1    3    3    0    0  0.37948016497E+02  0.22645416385E+02  0.18429554281E+02  0.47880218361E+02  0.00000000000E+00 0. -1.
      -12    1    3    3    0    0 -0.32792185699E+02  0.45043870942E+01  0.54174012522E+02  0.63485750990E+02  0.00000000000E+00 0.  1.
       21    1    1    2  502  501 -0.51558307974E+01 -0.27149803479E+02  0.78393797280E+03  0.78442491012E+03  0.00000000000E+00 0.  1.
</event>
<event>
 5   1  0.6181100E+00  0.8322311E+02  0.7957747E-01  0.1319125E+00
       -2   -1    0    0    0  501  0.00000000000E+00  0.00000000000E+00  0.27806663995E+02  0.27806663995E+02  0.00000000000E+00 0.  1.
        1   -1    0    0  501    0  0.00000000000E+00  0.00000000000E+00 -0.62270025325E+02  0.62270025325E+02  0.00000000000E+00 0. -1.
      -24    2    1    2    0    0  0.00000000000E+00  0.00000000000E+00 -0.34463361330E+02  0.90076689320E+02  0.83223113885E+02 0.  0.
       11    1    3    3    0    0  0.21106776850E+02 -0.16074830466E+01 -0.56007101249E+02  0.59873829183E+02  0.00000000000E+00 0. -1.
      -12    1    3    3    0    0 -0.21106776850E+02  0.16074830466E+01  0.21543739919E+02  0.30202860137E+02  0.00000000000E+00 0.  1.
</event>
<event>
 5   1  0.6181100E+00  0.8091671E+02  0.7957747E-01  0.1325119E+00
       -2   -1    0    0    0  501  0.00000000000E+00  0.00000000000E+00  0.58022694508E+02  0.58022694508E+02  0.00000000000E+00 0.  1.
        1   -1    0    0  501    0  0.00000000000E+00  0.00000000000E+00 -0.28211006536E+02  0.28211006536E+02  0.00000000000E+00 0. -1.
      -24    2    1    2    0    0  0.00000000000E+00  0.00000000000E+00  0.29811687973E+02  0.86233701044E+02  0.80916713082E+02 0.  0.
       11    1    3    3    0    0 -0.21118750459E+02  0.11099007525E+02 -0.19916755048E+02  0.31078396365E+02  0.00000000000E+00 0. -1.
      -12    1    3    3    0    0  0.21118750459E+02 -0.11099007525E+02  0.49728443020E+02  0.55155304679E+02  0.00000000000E+00 0.  1.
</event>
<event>
 5   1  0.6181100E+00  0.6534377E+02  0.7957747E-01  0.1372558E+00
       -2   -1    0    0    0  501  0.00000000000E+00  0.00000000000E+00  0.13495736898E+03  0.13495736898E+03  0.00000000000E+00 0.  1.
        1   -1    0    0  501    0  0.00000000000E+00  0.00000000000E+00 -0.79095510144E+01  0.79095510144E+01  0.00000000000E+00 0. -1.
      -24    2    1    2    0    0  0.00000000000E+00  0.00000000000E+00  0.12704781797E+03  0.14286691999E+03  0.65343773834E+02 0.  0.
       11    1    3    3    0    0 -0.19813392001E+02 -0.21847303571E+01  0.69260399755E+01  0.21102454337E+02  0.00000000000E+00 0. -1.
      -12    1    3    3    0    0  0.19813392001E+02  0.21847303571E+01  0.12012177799E+03  0.12176446566E+03  0.00000000000E+00 0.  1.
</event>
<event>
 6   2  0.6181100E+00  0.8392344E+02  0.7957747E-01  0.1317348E+00
        1   -1    0    0  502    0  0.00000000000E+00  0.00000000000E+00  0.86432105445E+01  0.86432105445E+01  0.00000000000E+00 0. -1.
       -2   -1    0    0    0  501  0.00000000000E+00  0.00000000000E+00 -0.42955497801E+03  0.42955497801E+03  0.00000000000E+00 0.  1.
      -24    2    1    2    0    0  0.15968395734E+02  0.22388806121E+02 -0.37819723921E+03  0.38739681824E+03  0.79289940936E+02 0.  0.
       11    1    3    3    0    0 -0.30579396074E+01  0.27062714467E+02 -0.38633067887E+02  0.47267911349E+02  0.00000000000E+00 0. -1.
      -12    1    3    3    0    0  0.19026335341E+02 -0.46739083453E+01 -0.33956417133E+03  0.34012890689E+03  0.00000000000E+00 0.  1.
       21    1    1    2  502  501 -0.15968395734E+02 -0.22388806121E+02 -0.42714528256E+02  0.50801370316E+02  0.00000000000E+00 0. -1.
</event>
<event>
 6   2  0.6181100E+00  0.9050177E+02  0.7957747E-01  0.1301560E+00
        1   -1    0    0  502    0  0.00000000000E+00  0.00000000000E+00  0.40288062309E+03  0.40288062309E+03  0.00000000000E+00 0. -1.
       21   -1    0    0  501  502  0.00000000000E+00  0.00000000000E+00 -0.43026218966E+02  0.43026218966E+02  0.00000000000E+00 0. -1.
      -24    2    1    2    0    0  0.42152170927E+02 -0.43219842284E+01  0.38576545694E+03  0.39623926994E+03  0.79969282927E+02 0.  0.
       11    1    3    3    0    0  0.55517435202E+02 -0.20212927757E+02  0.34942666260E+03  0.35438642834E+03  0.00000000000E+00 0. -1.
      -12    1    3    3    0    0 -0.13365264275E+02  0.15890943529E+02  0.36338794345E+02  0.41852841598E+02  0.00000000000E+00 0.  1.
        2    1    1    2  501    0 -0.42152170927E+02  0.43219842284E+01 -0.25911052819E+02  0.49667572114E+02  0.00000000000E+00 0. -1.
</event>
<event>
 5   1  0.6181100E+00  0.8039132E+02  0.7957747E-01  0.1326516E+00
       -2   -1    0    0    0  501  0.00000000000E+00  0.00000000000E+00  0.29276141313E+02  0.29276141313E+02  0.00000000000E+00 0.  1.
        1   -1    0    0  501    0  0.00000000000E+00  0.00000000000E+00 -0.55187978342E+02  0.55187978342E+02  0.00000000000E+00 0. -1.
      -24    2    1    2    0    0  0.00000000000E+00  0.00000000000E+00 -0.25911837028E+02  0.84464119655E+02  0.80391319251E+02 0.  0.
       11    1    3    3    0    0  0.39336553198E+02  0.37067976527E+01 -0.20718476884E+02  0.44613451455E+02  0.00000000000E+00 0. -1.
      -12    1    3    3    0    0 -0.39336553198E+02 -0.37067976527E+01 -0.51933601445E+01  0.39850668200E+02  0.00000000000E+00 0.  1.
</event>
<event>
 5   1  0.6181100E+00  0.8085481E+02  0.7957747E-01  0.1325283E+00
       -2   -1    0    0    0  501  0.00000000000E+00  0.00000000000E+00  0.22066856600E+03  0.22066856600E+03  0.00000000000E+00 0.  1.
        1   -1    0    0  501    0  0.00000000000E+00  0.00000000000E+00 -0.74064701862E+01  0.74064701862E+01  0.00000000000E+00 0. -1.
      -24    2    1    2    0    0  0.00000000000E+00  0.00000000000E+00  0.21326209581E+03  0.22807503618E+03  0.80854811980E+02 0.  0.
       11    1    3    3    0    0  0.26841120990E+02  0.78532339754E+01  0.24282311632E+02  0.37037139712E+02  0.00000000000E+00 0. -1.
      -12    1    3    3    0    0 -0.26841120990E+02 -0.78532339754E+01  0.18897978418E+03  0.19103789647E+03  0.00000000000E+00 0.  1.
</event>
<event>
 5   1  0.6181100E+00  0.8072951E+02  0.7957747E-01  0.1325616E+00
        1   -1    0    0  501    0  0.00000000000E+00  0.00000000000E+00  0.35991942559E+02  0.35991942559E+02  0.00000000000E+00 0. -1.
       -2   -1    0    0    0  501  0.00000000000E+00  0.00000000000E+00 -0.45268840760E+02  0.45268840760E+02  0.00000000000E+00 0.  1.
      -24    2    1    2    0    0  0.00000000000E+00  0.00000000000E+00 -0.92768982001E+01  0.81260783319E+02  0.80729511738E+02 0.  0.
       11    1    3    3    0    0  0.72647224346E+01 -0.37988158759E+02  0.69890685109E+01  0.39302970328E+02  0.00000000000E+00 0. -1.
      -12    1    3    3    0    0 -0.72647224346E+01  0.37988158759E+02 -0.16265966711E+02  0.41957812991E+02  0.00000000000E+00 0.  1.
</event>
<event>
 5   1  0.6181100E+00  0.7631364E+02  0.7957747E-01  0.1337788E+00
        3   -1    0    0  501    0  0.00000000000E+00  0.00000000000E+00  0.17772074951E+02  0.17772074951E+02  0.00000000000E+00 0. -1.
       -4   -1    0    0    0  501  0.00000000000E+00  0.00000000000E+00 -0.81923061524E+02  0.81923061524E+02  0.00000000000E+00 0.  1.
      -24    2    1    2    0    0  0.00000000000E+00  0.00000000000E+00 -0.64150986573E+02  0.99695136475E+02  0.76313636779E+02 0.  0.
       11    1    3    3    0    0 -0.17306385816E+02  0.12701011672E+01  0.12318960267E+02  0.21280999249E+02  0.00000000000E+00 0. -1.
      -12    1    3    3    0    0  0.17306385816E+02 -0.12701011672E+01 -0.76469946841E+02  0.78414137225E+02  0.00000000000E+00 0.  1.
</event>
<event>
 5   1  0.6181100E+00  0.7637958E+02  0.7957747E-01  0.1337599E+00
        1   -1    0    0  501    0  0.00000000000E+00  0.00000000000E+00  0.51761201469E+02  0.51761201469E+02  0.00000000000E+00 0. -1.
       -2   -1    0    0    0  501  0.00000000000E+00  0.00000000000E+00 -0.28176702552E+02  0.28176702552E+02  0.00000000000E+00 0.  1.
      -24    2    1    2    0    0  0.00000000000E+00  0.00000000000E+00  0.23584498917E+02  0.79937904020E+02  0.76379577834E+02 0.  0.
       11    1    3    3    0    0  0.20780987628E+02 -0.10941613403E+02  0.43309853802E+02  0.49267756058E+02  0.00000000000E+00 0. -1.
      -12    1    3    3    0    0 -0.20780987628E+02  0.10941613403E+02 -0.19725354885E+02  0.30670147962E+02  0.00000000000E+00 0.  1.
</event>
<event>
 5   1  0.6181100E+00  0.8235525E+02  0.7957747E-01  0.1321354E+00
        1   -1    0    0  501    0  0.00000000000E+00  0.00000000000E+00  0.27087585217E+03  0.27087585217E+03  0.00000000000E+00 0. -1.
       -2   -1    0    0    0  501  0.00000000000E+00  0.00000000000E+00 -0.62596819738E+01  0.62596819738E+01  0.00000000000E+00 0.  1.
      -24    2    1    2    0    0  0.00000000000E+00  0.00000000000E+00  0.26461617019E+03  0.27713553414E+03  0.82355247287E+02 0.  0.
       11    1    3    3    0    0  0.37274233935E+02 -0.32441758219E+01  0.19017484539E+03  0.19382044529E+03  0.00000000000E+00 0. -1.
      -12    1    3    3    0    0 -0.37274233935E+02  0.32441758219E+01  0.74441324803E+02  0.83315088854E+02  0.00000000000E+00 0.  1.
</event>
<event>
 4   3  0.6181100E+00  0.2127046E+03  0.7957747E-01  0.1146029E+00
       21   -1    0    0  501  502  0.00000000000E+00  0.00000000000E+00  0.20628240848E+04  0.20628240848E+04  0.00000000000E+00 0. -1.
       21   -1    0    0  502  503  0.00000000000E+00  0.00000000000E+00 -0.38957354800E+02  0.38957354800E+02  0.00000000000E+00 0. -1.
        6    1    1    2  501    0  0.11524610130E+03  0.45084150652E+02  0.17066414260E+04  0.17198454005E+04  0.17300000000E+03 0. -1.
       -6    1    1    2    0  503 -0.11524610130E+03 -0.45084150652E+02  0.31722530400E+03  0.38193603915E+03  0.17300000000E+03 0. -1.
</event>
<event>
 6   2  0.6181100E+00  0.8585435E+02  0.7957747E-01  0.1312549E+00
       21   -1    0    0  501  502  0.00000000000E+00  0.00000000000E+00  0.13145806485E+02  0.13145806485E+02  0.00000000000E+00 0. -1.
       -2   -1    0    0    0  501  0.00000000000E+00  0.00000000000E+00 -0.27036961819E+03  0.27036961819E+03  0.00000000000E+00 0.  1.
      -24    2    1    2    0    0  0.16707604644E+02 -0.24257885221E+02 -0.15566038332E+03  0.17776704864E+03  0.80643534143E+02 0.  0.
       11    1    3    3    0    0  0.46949642346E+02 -0.25549782494E+02 -0.79363917749E+02  0.95685378937E+02  0.00000000000E+00 0. -1.
      -12    1    3    3    0    0 -0.30242037701E+02  0.12918972733E+01 -0.76296465569E+02  0.82081669703E+02  0.00000000000E+00 0.  1.
       -1    1    1    2    0  502 -0.16707604644E+02  0.24257885221E+02 -0.10156342839E+03  0.10574837604E+03  0.00000000000E+00 0.  1.
</event>
<event>
 5   1  0.6181100E+00  0.8063747E+02  0.7957747E-01  0.1325860E+00
       -4   -1    0    0    0  501  0.00000000000E+00  0.00000000000E+00  0.11433749089E+02  0.11433749089E+02  0.00000000000E+00 0.  1.
        3   -1    0    0  501    0  0.00000000000E+00  0.00000000000E+00 -0.14217563757E+03  0.14217563757E+03  0.00000000000E+00 0. -1.
      -24    2    1    2    0    0  0.00000000000E+00  0.00000000000E+00 -0.13074188848E+03  0.15360938666E+03  0.80637474330E+02 0.  0.
       11    1    3    3    0    0 -0.10567980330E+02 -0.20722266664E+02 -0.12810405485E+03  0.13019886103E+03  0.00000000000E+00 0. -1.
      -12    1    3    3    0    0  0.10567980330E+02  0.20722266664E+02 -0.26378336278E+01  0.23410525629E+02  0.00000000000E+00 0.  1.
</event>
<event>
 5   1  0.6181100E+00  0.7788813E+02  0.7957747E-01  0.1333343E+00
       -2   -1    0    0    0  501  0.00000000000E+00  0.00000000000E+00  0.20935383885E+02  0.20935383885E+02  0.00000000000E+00 0.  1.
        1   -1    0    0  501    0  0.00000000000E+00  0.00000000000E+00 -0.72443870127E+02  0.72443870127E+02  0.00000000000E+00 0. -1.
      -24    2    1    2    0    0  0.00000000000E+00  0.00000000000E+00 -0.51508486241E+02  0.93379254012E+02  0.77888130834E+02 0.  0.
       11    1    3    3    0    0  0.24011362868E+02  0.88279833833E+00 -0.62498107419E+02  0.66957735257E+02  0.00000000000E+00 0. -1.
      -12    1    3    3    0    0 -0.24011362868E+02 -0.88279833833E+00  0.10989621178E+02  0.26421518755E+02  0.00000000000E+00 0.  1.
</event>
<event>
 5   1  0.6181100E+00  0.8038950E+02  0.7957747E-01  0.1326521E+00
        3   -1    0    0  501    0  0.00000000000E+00  0.00000000000E+00  0.71144173056E+02  0.71144173056E+02  0.00000000000E+00 0. -1.
       -4   -1    0    0    0  501  0.00000000000E+00  0.00000000000E+00 -0.22709070951E+02  0.22709070951E+02  0.00000000000E+00 0.  1.
      -24    2    1    2    0    0  0.00000000000E+00  0.00000000000E+00  0.48435102106E+02  0.93853244007E+02  0.80389503635E+02 0.  0.
       11    1    3    3    0    0 -0.33757324305E+02 -0.12512291145E+02  0.45085890245E+02  0.57696203281E+02  0.00000000000E+00 0. -1.
      -12    1    3    3    0    0  0.33757324305E+02  0.12512291145E+02  0.33492118612E+01  0.36157040726E+02  0.00000000000E+00 0.  1.
</event>
<event>
 5   1  0.6181100E+00  0.8322920E+02  0.7957747E-01  0.1319109E+00
        1   -1    0    0  501    0  0.00000000000E+00  0.00000000000E+00  0.76520151202E+02  0.76520151202E+02  0.00000000000E+00 0. -1.
       -2   -1    0    0    0  501  0.00000000000E+00  0.00000000000E+00 -0.22631620543E+02  0.22631620543E+02  0.00000000000E+00 0.  1.
      -24    2    1    2    0    0  0.00000000000E+00  0.00000000000E+00  0.53888530658E+02  0.99151771745E+02  0.83229202229E+02 0.  0.
       11    1    3    3    0    0  0.24785072511E+02  0.22230042054E+01  0.66680003718E+02  0.71172076427E+02  0.00000000000E+00 0. -1.
      -12    1    3    3    0    0 -0.24785072511E+02 -0.22230042054E+01 -0.12791473060E+02  0.27979695318E+02  0.00000000000E+00 0.  1.
</event>
<event>
 5   1  0.6181100E+00  0.8075687E+02  0.7957747E-01  0.1325543E+00
       -2   -1    0    0    0  501  0.00000000000E+00  0.00000000000E+00  0.60358684998E+03  0.60358684998E+03  0.00000000000E+00 0.  1.
        1   -1    0    0  501    0  0.00000000000E+00  0.00000000000E+00 -0.27012153650E+01  0.27012153650E+01  0.00000000000E+00 0. -1.
      -24    2    1    2    0    0  0.00000000000E+00  0.00000000000E+00  0.60088563461E+03  0.60628806534E+03  0.80756871492E+02 0.  0.
       11    1    3    3    0    0 -0.75861104387E+01  0.33210806519E+02  0.13769787812E+03  0.14184925936E+03  0.00000000000E+00 0. -1.
      -12    1    3    3    0    0  0.75861104387E+01 -0.33210806519E+02  0.46318775649E+03  0.46443880598E+03  0.00000000000E+00 0.  1.
</event>
<event>
 5   1  0.6181100E+00  0.7987914E+02  0.7957747E-01  0.1327890E+00
       -2   -1    0    0    0  501  0.00000000000E+00  0.00000000000E+00  0.35183021857E+03  0.35183021857E+03  0.00000000000E+00 0.  1.
        1   -1    0    0  501    0  0.00000000000E+00  0.00000000000E+00 -0.45339180138E+01  0.45339180138E+01  0.00000000000E+00 0. -1.
      -24    2    1    2    0    0  0.00000000000E+00  0.00000000000E+00  0.34729630056E+03  0.35636413659E+03  0.79879142854E+02 0.  0.
       11    1    3    3    0    0  0.22941602224E+02  0.29308606173E+02  0.10901977879E+03  0.11519819302E+03  0.00000000000E+00 0. -1.
      -12    1    3    3    0    0 -0.22941602224E+02 -0.29308606173E+02  0.23827652177E+03  0.24116594357E+03  0.00000000000E+00 0.  1.
</event>
<event>
 5   1  0.6181100E+00  0.7864407E+02  0.7957747E-01  0.1331251E+00
       -2   -1    0    0    0  501  0.00000000000E+00  0.00000000000E+00  0.95565635189E+02  0.95565635189E+02  0.00000000000E+00 0.  1.
        1   -1    0    0  501    0  0.00000000000E+00  0.00000000000E+00 -0.16179690271E+02  0.16179690271E+02  0.00000000000E+00 0. -1.
      -24    2    1    2    0    0  0.00000000000E+00  0.00000000000E+00  0.79385944918E+02  0.11174532546E+03  0.78644068508E+02 0.  0.
       11    1    3    3    0    0 -0.64098668271E+01  0.13946554844E+02 -0.11747313809E+02  0.19328532446E+02  0.00000000000E+00 0. -1.
      -12    1    3    3    0    0  0.64098668271E+01 -0.13946554844E+02  0.91133258727E+02  0.92416793014E+02  0.00000000000E+00 0.  1.
</event>
<event>
 5   1  0.6181100E+00  0.7958027E+02  0.7957747E-01  0.1328697E+00
       -2   -1    0    0    0  501  0.00000000000E+00  0.00000000000E+00  0.96903238728E+02  0.96903238728E+02  0.00000000000E+00 0.  1.
        1   -1    0    0  501    0  0.00000000000E+00  0.00000000000E+00 -0.16338514128E+02  0.16338514128E+02  0.00000000000E+00 0. -1.
      -24    2    1    2    0    0  0.00000000000E+00  0.00000000000E+00  0.80564724601E+02  0.11324175286E+03  0.79580272303E+02 0.  0.
       11    1    3    3    0    0  0.32582685506E+02  0.22408280826E+02  0.33999828566E+02  0.52151229965E+02  0.00000000000E+00 0. -1.
      -12    1    3    3    0    0 -0.32582685506E+02 -0.22408280826E+02  0.46564896035E+02  0.61090522891E+02  0.00000000000E+00 0.  1.
</event>
<event>
 5   1  0.6181100E+00  0.9216080E+02  0.7957747E-01  0.1297815E+00
       -4   -1    0    0    0  501  0.00000000000E+00  0.00000000000E+00  0.22313727489E+02  0.22313727489E+02  0.00000000000E+00 0.  1.
        3   -1    0    0  501    0  0.00000000000E+00  0.00000000000E+00 -0.95161292747E+02  0.95161292747E+02  0.00000000000E+00 0. -1.
      -24    2    1    2    0    0  0.00000000000E+00  0.00000000000E+00 -0.72847565258E+02  0.11747502024E+03  0.92160797606E+02 0.  0.
       11    1    3    3    0    0 -0.44515044664E+02  0.64356343602E+01 -0.49195777224E+02  0.66657565870E+02  0.00000000000E+00 0. -1.
      -12    1    3    3    0    0  0.44515044664E+02 -0.64356343602E+01 -0.23651788034E+02  0.50817454366E+02  0.00000000000E+00 0.  1.
</event>
<event>
 5   1  0.6181100E+00  0.7967026E+02  0.7957747E-01  0.1328454E+00
       -2   -1    0    0    0  501  0.00000000000E+00  0.00000000000E+00  0.13112978840E+02  0.13112978840E+02  0.00000000000E+00 0.  1.
        1   -1    0    0  501    0  0.00000000000E+00  0.00000000000E+00 -0.12101273430E+03  0.12101273430E+03  0.00000000000E+00 0. -1.
      -24    2    1    2    0    0  0.00000000000E+00  0.00000000000E+00 -0.10789975546E+03  0.13412571314E+03  0.79670256038E+02 0.  0.
       11    1    3    3    0    0  0.12394438609E+02 -0.18476145392E+02 -0.10957830694E+03  0.11181411096E+03  0.00000000000E+00 0. -1.
      -12    1    3    3    0    0 -0.12394438609E+02  0.18476145392E+02  0.16785514797E+01  0.22311602185E+02  0.00000000000E+00 0.  1.
</event>
<event>
 6   2  0.6181100E+00  0.8643706E+02  0.7957747E-01  0.1311128E+00
        3   -1    0    0  502    0  0.00000000000E+00  0.00000000000E+00  0.55149372012E+02  0.55149372012E+02  0.00000000000E+00 0. -1.
       21   -1    0    0  501  502  0.00000000000E+00  0.00000000000E+00 -0.66081180691E+02  0.66081180691E+02  0.00000000000E+00 0. -1.
      -24    2    1    2    0    0 -0.28832015969E+02  0.17772999947E+02 -0.32370116612E+01  0.86497649382E+02  0.79524841604E+02 0.  0.
       11    1    3    3    0    0 -0.43947006522E+02  0.39703765525E+02  0.23920119814E+01  0.59274362927E+02  0.00000000000E+00 0. -1.
      -12    1    3    3    0    0  0.15114990553E+02 -0.21930765578E+02 -0.56290236426E+01  0.27223286455E+02  0.00000000000E+00 0.  1.
        4    1    1    2  501    0  0.28832015969E+02 -0.17772999947E+02 -0.76947970179E+01  0.34732903321E+02  0.00000000000E+00 0. -1.
</event>
<event>
 6   2  0.6181100E+00  0.8089331E+02  0.7957747E-01  0.1325181E+00
        1   -1    0    0  502    0  0.00000000000E+00  0.00000000000E+00  0.25622635988E+03  0.25622635988E+03  0.00000000000E+00 0. -1.
       -2   -1    0    0    0  501  0.00000000000E+00  0.00000000000E+00 -0.12505564063E+02  0.12505564063E+02  0.00000000000E+00 0.  1.
      -24    2    1    2    0    0  0.22572243561E+02  0.23069193340E+01  0.22569311622E+03  0.23975218468E+03  0.77645986975E+02 0.  0.
       11    1    3    3    0    0  0.51044057006E+02 -0.16731220200E+01  0.12486771467E+03  0.13490826980E+03  0.00000000000E+00 0. -1.
      -12    1    3    3    0    0 -0.28471813445E+02  0.39800413541E+01  0.10082540155E+03  0.10484391488E+03  0.00000000000E+00 0.  1.
       21    1    1    2  502  501 -0.22572243561E+02 -0.23069193340E+01  0.18027679599E+02  0.28979739266E+02  0.00000000000E+00 0.  1.
</event>
<event>
 5   1  0.6181100E+00  0.8076510E+02  0.7957747E-01  0.1325521E+00
       -4   -1    0    0    0  501  0.00000000000E+00  0.00000000000E+00  0.51111331189E+02  0.51111331189E+02  0.00000000000E+00 0.  1.
        3   -1    0    0  501    0  0.00000000000E+00  0.00000000000E+00 -0.31905849840E+02  0.31905849840E+02  0.00000000000E+00 0. -1.
      -24    2    1    2    0    0  0.00000000000E+00  0.00000000000E+00  0.19205481349E+02  0.83017181028E+02  0.80765102811E+02 0.  0.
       11    1    3    3    0    0  0.31594840373E+02  0.66723300742E+01 -0.15322055410E+02  0.35742402113E+02  0.00000000000E+00 0. -1.
      -12    1    3    3    0    0 -0.31594840373E+02 -0.66723300742E+01  0.34527536759E+02  0.47274778915E+02  0.00000000000E+00 0.  1.
</event>
<event>
 5   1  0.6181100E+00  0.8936644E+02  0.7957747E-01  0.1304174E+00
        1   -1    0    0  501    0  0.00000000000E+00  0.00000000000E+00  0.26143263279E+01  0.26143263279E+01  0.00000000000E+00 0. -1.
       -2   -1    0    0    0  501  0.00000000000E+00  0.00000000000E+00 -0.76371115796E+03  0.76371115796E+03  0.00000000000E+00 0.  1.
      -24    2    1    2    0    0  0.00000000000E+00  0.00000000000E+00 -0.76109683163E+03  0.76632548428E+03  0.89366440841E+02 0.  0.
       11    1    3    3    0    0  0.35866270997E+02  0.19357260044E+02 -0.22348201015E+03  0.22716800341E+03  0.00000000000E+00 0. -1.
      -12    1    3    3    0    0 -0.35866270997E+02 -0.19357260044E+02 -0.53761482148E+03  0.53915748088E+03  0.00000000000E+00 0.  1.
</event>
<event>
 5   1  0.6181100E+00  0.8319658E+02  0.7957747E-01  0.1319192E+00
       -2   -1    0    0    0  501  0.00000000000E+00  0.00000000000E+00  0.11201740387E+02  0.11201740387E+02  0.00000000000E+00 0.  1.
        1   -1    0    0  501    0  0.00000000000E+00  0.00000000000E+00 -0.15447757920E+03  0.15447757920E+03  0.00000000000E+00 0. -1.
      -24    2    1    2    0    0  0.00000000000E+00  0.00000000000E+00 -0.14327583882E+03  0.16567931959E+03  0.83196580166E+02 0.  0.
       11    1    3    3    0    0  0.27032699671E+02  0.14704325096E+02 -0.12737753315E+03  0.13104205424E+03  0.00000000000E+00 0. -1.
      -12    1    3    3    0    0 -0.27032699671E+02 -0.14704325096E+02 -0.15898305670E+02  0.34637265354E+02  0.00000000000E+00 0.  1.
</event>
<event>
 4   3  0.6181100E+00  0.1934311E+03  0.7957747E-01  0.1161456E+00
       21   -1    0    0  503  502  0.00000000000E+00  0.00000000000E+00  0.72767453646E+03  0.72767453646E+03  0.00000000000E+00 0. -1.
       21   -1    0    0  501  503  0.00000000000E+00  0.00000000000E+00 -0.53204723387E+02  0.53204723387E+02  0.00000000000E+00 0.  1.
        6    1    1    2  501    0  0.86358611402E+02 -0.53637116731E+01  0.26568553663E+03  0.32864020378E+03  0.17300000000E+03 0.  1.
       -6    1    1    2    0  502 -0.86358611402E+02  0.53637116731E+01  0.40878427645E+03  0.45223905607E+03  0.17300000000E+03 0. -1.
</event>
<event>
 4   3  0.6181100E+00  0.1851590E+03  0.7957747E-01  0.1168694E+00
       21   -1    0    0  501  502  0.00000000000E+00  0.00000000000E+00  0.11506278543E+03  0.11506278543E+03  0.00000000000E+00 0.  1.
       21   -1    0    0  502  503  0.00000000000E+00  0.00000000000E+00 -0.30061329913E+03  0.30061329913E+03  0.00000000000E+00 0. -1.
        6    1    1    2  501    0  0.46357921692E+02 -0.46966014920E+02 -0.73241418196E+02  0.19911847930E+03  0.17300000000E+03 0.  1.
       -6    1    1    2    0  503 -0.46357921692E+02  0.46966014920E+02 -0.11230909550E+03  0.21655760526E+03  0.17300000000E+03 0. -1.
</event>
<event>
 6   2  0.6181100E+00  0.8412488E+02  0.7957747E-01  0.1316840E+00
        1   -1    0    0  502    0  0.00000000000E+00  0.00000000000E+00  0.21214200407E+02  0.21214200407E+02  0.00000000000E+00 0. -1.
       -2   -1    0    0    0  501  0.00000000000E+00  0.00000000000E+00 -0.27901022481E+03  0.27901022481E+03  0.00000000000E+00 0.  1.
      -24    2    1    2    0    0  0.28570345406E+02 -0.22205246873E+01 -0.25820639704E+03  0.27156498049E+03  0.79093614108E+02 0.  0.
       11    1    3    3    0    0  0.13849272808E+02 -0.20682087188E+02 -0.19305549380E+02  0.31500084517E+02  0.00000000000E+00 0. -1.
      -12    1    3    3    0    0  0.14721072599E+02  0.18461562500E+02 -0.23890084766E+03  0.24006489597E+03  0.00000000000E+00 0.  1.
       21    1    1    2  502  501 -0.28570345406E+02  0.22205246873E+01  0.41037262867E+00  0.28659444730E+02  0.00000000000E+00 0. -1.
</event>
<event>
 5   1  0.6181100E+00  0.8070859E+02  0.7957747E-01  0.1325671E+00
        3   -1    0    0  501    0  0.00000000000E+00  0.00000000000E+00  0.58889160988E+01  0.58889160988E+01  0.00000000000E+00 0. -1.
       -4   -1    0    0    0  501  0.00000000000E+00  0.00000000000E+00 -0.27653121600E+03  0.27653121600E+03  0.00000000000E+00 0.  1.
      -24    2    1    2    0    0  0.00000000000E+00  0.00000000000E+00 -0.27064229990E+03  0.28242013210E+03  0.80708590118E+02 0.  0.
       11    1    3    3    0    0 -0.21268849802E+02  0.15993545947E+02 -0.29165442258E+02  0.39481394428E+02  0.00000000000E+00 0. -1.
      -12    1    3    3    0    0  0.21268849802E+02 -0.15993545947E+02 -0.24147685764E+03  0.24293873767E+03  0.00000000000E+00 0.  1.
</event>
<event>
 5   1  0.6181100E+00  0.8035436E+02  0.7957747E-01  0.1326615E+00
        3   -1    0    0  501    0  0.00000000000E+00  0.00000000000E+00  0.38540943026E+01  0.38540943026E+01  0.00000000000E+00 0. -1.
       -4   -1    0    0    0  501  0.00000000000E+00  0.00000000000E+00 -0.41882882571E+03  0.41882882571E+03  0.00000000000E+00 0.  1.
      -24    2    1    2    0    0  0.00000000000E+00  0.00000000000E+00 -0.41497473141E+03  0.42268292001E+03  0.80354359955E+02 0.  0.
       11    1    3    3    0    0  0.15506461497E+02  0.14427522561E+02 -0.27898088965E+02  0.35027234023E+02  0.00000000000E+00 0. -1.
      -12    1    3    3    0    0 -0.15506461497E+02 -0.14427522561E+02 -0.38707664244E+03  0.38765568599E+03  0.00000000000E+00 0.  1.
</event>
<event>
 5   1  0.6181100E+00  0.8008433E+02  0.7957747E-01  0.1327338E+00
       -2   -1    0    0    0  501  0.00000000000E+00  0.00000000000E+00  0.86954423376E+02  0.86954423376E+02  0.00000000000E+00 0.  1.
        1   -1    0    0  501    0  0.00000000000E+00  0.00000000000E+00 -0.18439259149E+02  0.18439259149E+02  0.00000000000E+00 0. -1.
      -24    2    1    2    0    0  0.00000000000E+00  0.00000000000E+00  0.68515164228E+02  0.10539368253E+03  0.80084334217E+02 0.  0.
       11    1    3    3    0    0  0.33060498714E+02 -0.22848565545E+01  0.46787768360E+01  0.33468016036E+02  0.00000000000E+00 0. -1.
      -12    1    3    3    0    0 -0.33060498714E+02  0.22848565545E+01  0.63836387392E+02  0.71925666489E+02  0.00000000000E+00 0.  1.
</event>
<event>
 5   1  0.6181100E+00  0.8261113E+02  0.7957747E-01  0.1320694E+00
       -2   -1    0    0    0  501  0.00000000000E+00  0.00000000000E+00  0.23956593059E+02  0.23956593059E+02  0.00000000000E+00 0.  1.
        1   -1    0    0  501    0  0.00000000000E+00  0.00000000000E+00 -0.71218383092E+02  0.71218383092E+02  0.00000000000E+00 0. -1.
      -24    2    1    2    0    0  0.00000000000E+00  0.00000000000E+00 -0.47261790033E+02  0.95174976151E+02  0.82611132956E+02 0.  0.
       11    1    3    3    0    0 -0.11323874375E+02 -0.36844790306E+02 -0.65279306903E+01  0.39094533923E+02  0.00000000000E+00 0. -1.
      -12    1    3    3    0    0  0.11323874375E+02  0.36844790306E+02 -0.40733859343E+02  0.56080442228E+02  0.00000000000E+00 0.  1.
</event>
<event>
 5   1  0.6181100E+00  0.6836964E+02  0.7957747E-01  0.1362231E+00
        3   -1    0    0  501    0  0.00000000000E+00  0.00000000000E+00  0.73275524693E+02  0.73275524693E+02  0.00000000000E+00 0. -1.
       -4   -1    0    0    0  501  0.00000000000E+00  0.00000000000E+00 -0.15948053090E+02  0.15948053090E+02  0.00000000000E+00 0.  1.
      -24    2    1    2    0    0  0.00000000000E+00  0.00000000000E+00  0.57327471602E+02  0.89223577783E+02  0.68369641158E+02 0.  0.
       11    1    3    3    0    0 -0.20020162170E+02  0.86873342536E+01  0.63001453922E+02  0.66674281893E+02  0.00000000000E+00 0. -1.
      -12    1    3    3    0    0  0.20020162170E+02 -0.86873342536E+01 -0.56739823195E+01  0.22549295889E+02  0.00000000000E+00 0.  1.
</event>
<event>
 5   1  0.6181100E+00  0.7956368E+02  0.7957747E-01  0.1328742E+00
       -4   -1    0    0    0  501  0.00000000000E+00  0.00000000000E+00  0.85335548657E+02  0.85335548657E+02  0.00000000000E+00 0.  1.
        3   -1    0    0  501    0  0.00000000000E+00  0.00000000000E+00 -0.18545549229E+02  0.18545549229E+02  0.00000000000E+00 0. -1.
      -24    2    1    2    0    0  0.00000000000E+00  0.00000000000E+00  0.66789999428E+02  0.10388109789E+03  0.79563675597E+02 0.  0.
       11    1    3    3    0    0  0.57139733324E+01 -0.35706358966E+02  0.11743455595E+02  0.38019762114E+02  0.00000000000E+00 0. -1.
      -12    1    3    3    0    0 -0.57139733324E+01  0.35706358966E+02  0.55046543832E+02  0.65861335772E+02  0.00000000000E+00 0.  1.
</event>
<event>
 5   1  0.6181100E+00  0.7890434E+02  0.7957747E-01  0.1330537E+00
        3   -1    0    0  501    0  0.00000000000E+00  0.00000000000E+00  0.25322200994E+02  0.25322200994E+02  0.00000000000E+00 0. -1.
       -4   -1    0    0    0  501  0.00000000000E+00  0.00000000000E+00 -0.61466761573E+02  0.61466761573E+02  0.00000000000E+00 0.  1.
      -24    2    1    2    0    0  0.00000000000E+00  0.00000000000E+00 -0.36144560579E+02  0.86788962567E+02  0.78904339323E+02 0.  0.
       11    1    3    3    0    0  0.17545435739E+02 -0.34269149587E+02 -0.85939548966E+01  0.39447091014E+02  0.00000000000E+00 0. -1.
      -12    1    3    3    0    0 -0.17545435739E+02  0.34269149587E+02 -0.27550605682E+02  0.47341871553E+02  0.00000000000E+00 0.  1.
</event>
<event>
 5   1  0.6181100E+00  0.7847282E+02  0.7957747E-01  0.1331723E+00
        1   -1    0    0  501    0  0.00000000000E+00  0.00000000000E+00  0.48806468012E+01  0.48806468012E+01  0.00000000000E+00 0. -1.
       -2   -1    0    0    0  501  0.00000000000E+00  0.00000000000E+00 -0.31542863774E+03  0.31542863774E+03  0.00000000000E+00 0.  1.
      -24    2    1    2    0    0  0.00000000000E+00  0.00000000000E+00 -0.31054799094E+03  0.32030928454E+03  0.78472817505E+02 0.  0.
       11    1    3    3    0    0 -0.39042485163E+01 -0.38182458151E+02 -0.12202496831E+03  0.12791886553E+03  0.00000000000E+00 0. -1.
      -12    1    3    3    0    0  0.39042485163E+01  0.38182458151E+02 -0.18852302263E+03  0.19239041901E+03  0.00000000000E+00 0.  1.
</event>
<event>
 6   2  0.6181100E+00  0.9229281E+02  0.7957747E-01  0.1297521E+00
       21   -1    0    0  501  502  0.00000000000E+00  0.00000000000E+00  0.33478255756E+03  0.33478255756E+03  0.00000000000E+00 0. -1.
       -2   -1    0    0    0  501  0.00000000000E+00  0.00000000000E+00 -0.19445067197E+02  0.19445067197E+02  0.00000000000E+00 0.  1.
      -24    2    1    2    0    0 -0.22955929354E+02 -0.36202236286E+02  0.10601159257E+03  0.14055753305E+03  0.81733626692E+02 0.  0.
       11    1    3    3    0    0  0.34359208409E+00 -0.49672938112E+02  0.10185867221E+03  0.11332567203E+03  0.00000000000E+00 0. -1.
      -12    1    3    3    0    0 -0.23299521438E+02  0.13470701826E+02  0.41529203583E+01  0.27231861017E+02  0.00000000000E+00 0.  1.
       -1    1    1    2    0  502  0.22955929354E+02  0.36202236286E+02  0.20932589779E+03  0.21367009171E+03  0.00000000000E+00 0.  1.
</event>
<event>
 5   1  0.6181100E+00  0.8069764E+02  0.7957747E-01  0.1325700E+00
        1   -1    0    0  501    0  0.00000000000E+00  0.00000000000E+00  0.73482119147E+01  0.73482119147E+01  0.00000000000E+00 0. -1.
       -2   -1    0    0    0  501  0.00000000000E+00  0.00000000000E+00 -0.22155423172E+03  0.22155423172E+03  0.00000000000E+00 0.  1.
      -24    2    1    2    0    0  0.00000000000E+00  0.00000000000E+00 -0.21420601980E+03  0.22890244363E+03  0.80697644210E+02 0.  0.
       11    1    3    3    0    0 -0.32346265808E+02 -0.89440167053E+01 -0.43564980920E+02  0.54992580492E+02  0.00000000000E+00 0. -1.
      -12    1    3    3    0    0  0.32346265808E+02  0.89440167053E+01 -0.17064103888E+03  0.17390986314E+03  0.00000000000E+00 0.  1.
</event>
<event>
 5   1  0.6181100E+00  0.7693302E+02  0.7957747E-01  0.1336025E+00
        1   -1    0    0  501    0  0.00000000000E+00  0.00000000000E+00  0.13796230851E+02  0.13796230851E+02  0.00000000000E+00 0. -1.
       -2   -1    0    0    0  501  0.00000000000E+00  0.00000000000E+00 -0.10725193070E+03  0.10725193070E+03  0.00000000000E+00 0.  1.
      -24    2    1    2    0    0  0.00000000000E+00  0.00000000000E+00 -0.93455699847E+02  0.12104816155E+03  0.76933020094E+02 0.  0.
       11    1    3    3    0    0 -0.75210604525E+01  0.37170838475E+02 -0.36599747086E+02  0.52704639928E+02  0.00000000000E+00 0. -1.
      -12    1    3    3    0    0  0.75210604525E+01 -0.37170838475E+02 -0.56855952761E+02  0.68343521621E+02  0.00000000000E+00 0.  1.
</event>
<event>
 5   1  0.6181100E+00  0.8029452E+02  0.7957747E-01  0.1326775E+00
        1   -1    0    0  501    0  0.00000000000E+00  0.00000000000E+00  0.43378401336E+03  0.43378401336E+03  0.00000000000E+00 0. -1.
       -2   -1    0    0    0  501  0.00000000000E+00  0.00000000000E+00 -0.37156795573E+01  0.37156795573E+01  0.00000000000E+00 0.  1.
      -24    2    1    2    0    0  0.00000000000E+00  0.00000000000E+00  0.43006833380E+03  0.43749969292E+03  0.80294517639E+02 0.  0.
       11    1    3    3    0    0  0.26497640672E+01  0.36463141934E+02  0.12464171084E+03  0.12989279445E+03  0.00000000000E+00 0. -1.
      -12    1    3    3    0    0 -0.26497640672E+01 -0.36463141934E+02  0.30542662296E+03  0.30760689846E+03  0.00000000000E+00 0.  1.
</event>
<event>
 6   2  0.6181100E+00  0.9674055E+02  0.7957747E-01  0.1287924E+00
       -4   -1    0    0    0  501  0.00000000000E+00  0.00000000000E+00  0.74922935681E+03  0.74922935681E+03  0.00000000000E+00 0.  1.
        3   -1    0    0  502    0  0.00000000000E+00  0.00000000000E+00 -0.10191787761E+02  0.10191787761E+02  0.00000000000E+00 0. -1.
      -24    2    1    2    0    0  0.30655445412E+02  0.47242688342E+02  0.26604697227E+03  0.28308960816E+03  0.78658164614E+02 0.  0.
       11    1    3    3    0    0  0.32161565722E+02  0.43844396596E+02  0.78429029246E+02  0.95434847153E+02  0.00000000000E+00 0. -1.
      -12    1    3    3    0    0 -0.15061203102E+01  0.33982917453E+01  0.18761794302E+03  0.18765476101E+03  0.00000000000E+00 0.  1.
       21    1    1    2  502  501 -0.30655445412E+02 -0.47242688342E+02  0.47299059678E+03  0.47633153641E+03  0.00000000000E+00 0.  1.
</event>
<event>
 6   2  0.6181100E+00  0.8467292E+02  0.7957747E-01  0.1315468E+00
       -4   -1    0    0    0  501  0.00000000000E+00  0.00000000000E+00  0.49561186640E+02  0.49561186640E+02  0.00000000000E+00 0.  1.
       21   -1    0    0  501  502  0.00000000000E+00  0.00000000000E+00 -0.66384897452E+02  0.66384897452E+02  0.00000000000E+00 0.  1.
      -24    2    1    2    0    0 -0.44165073591E+01 -0.28098566827E+02 -0.20894112131E+02  0.87212773077E+02  0.79752547740E+02 0.  0.
       11    1    3    3    0    0  0.32529390774E+02  0.21106323565E+00  0.65448522923E+01  0.33181936402E+02  0.00000000000E+00 0. -1.
      -12    1    3    3    0    0 -0.36945898133E+02 -0.28309630063E+02 -0.27438964423E+02  0.54030836675E+02  0.00000000000E+00 0.  1.
       -3    1    1    2    0  502  0.44165073591E+01  0.28098566827E+02  0.40704013186E+01  0.28733311015E+02  0.00000000000E+00 0.  1.
</event>
<event>
 6   2  0.6181100E+00  0.8377194E+02  0.7957747E-01  0.1317731E+00
       21   -1    0    0  501  502  0.00000000000E+00  0.00000000000E+00  0.84593191154E+02  0.84593191154E+02  0.00000000000E+00 0. -1.
       -4   -1    0    0    0  501  0.00000000000E+00  0.00000000000E+00 -0.34227109432E+02  0.34227109432E+02  0.00000000000E+00 0.  1.
      -24    2    1    2    0    0 -0.19517575645E+02  0.97711646091E+01  0.30041096230E+02  0.88995538187E+02  0.80878470174E+02 0.  0.
       11    1    3    3    0    0  0.15665348868E+01  0.39604687116E+02  0.34038473257E+02  0.52245602062E+02  0.00000000000E+00 0. -1.
      -12    1    3    3    0    0 -0.21084110531E+02 -0.29833522507E+02 -0.39973770273E+01  0.36749936125E+02  0.00000000000E+00 0.  1.
       -3    1    1    2    0  502  0.19517575645E+02 -0.97711646091E+01  0.20324985493E+02  0.29824762399E+02  0.00000000000E+00 0.  1.
</event>
<event>
 5   1  0.6181100E+00  0.9072689E+02  0.7957747E-01  0.1301046E+00
        1   -1    0    0  501    0  0.00000000000E+00  0.00000000000E+00  0.12577511849E+03  0.12577511849E+03  0.00000000000E+00 0. -1.
       -2   -1    0    0    0  501  0.00000000000E+00  0.00000000000E+00 -0.16361279885E+02  0.16361279885E+02  0.00000000000E+00 0.  1.
      -24    2    1    2    0    0  0.00000000000E+00  0.00000000000E+00  0.10941383860E+03  0.14213639837E+03  0.90726885014E+02 0.  0.
       11    1    3    3    0    0  0.33205301478E+01  0.27259414075E+02  0.11127414220E+03  0.11461254861E+03  0.00000000000E+00 0. -1.
      -12    1    3    3    0    0 -0.33205301478E+01 -0.27259414075E+02 -0.18603036004E+01  0.27523849761E+02  0.00000000000E+00 0.  1.
</event>
<event>
 5   1  0.6181100E+00  0.7852215E+02  0.7957747E-01  0.1331587E+00
        1   -1    0    0  501    0  0.00000000000E+00  0.00000000000E+00  0.80756103089E+01  0.80756103089E+01  0.00000000000E+00 0. -1.
       -2   -1    0    0    0  501  0.00000000000E+00  0.00000000000E+00 -0.19087497562E+03  0.19087497562E+03  0.00000000000E+00 0.  1.
      -24    2    1    2    0    0  0.00000000000E+00  0.00000000000E+00 -0.18279936531E+03  0.19895058593E+03  0.78522147725E+02 0.  0.
       11    1    3    3    0    0  0.93461018100E+01 -0.27302381634E+02 -0.23951119130E+02  0.37502343520E+02  0.00000000000E+00 0. -1.
      -12    1    3    3    0    0 -0.93461018100E+01  0.27302381634E+02 -0.15884824618E+03  0.16144824241E+03  0.00000000000E+00 0.  1.
</event>
<event>
 6   2  0.6181100E+00  0.1246139E+03  0.7957747E-01  0.1238640E+00
        1   -1    0    0  502    0  0.00000000000E+00  0.00000000000E+00  0.88056200598E+03  0.88056200598E+03  0.00000000000E+00 0. -1.
       21   -1    0    0  501  502  0.00000000000E+00  0.00000000000E+00 -0.22941135683E+02  0.22941135683E+02  0.00000000000E+00 0. -1.
      -24    2    1    2    0    0 -0.70086882045E+02 -0.63451012546E+02  0.17768949299E+03  0.21703036007E+03  0.81181397151E+02 0.  0.
       11    1    3    3    0    0 -0.80237707855E+02 -0.69940110239E+02  0.17477311997E+03  0.20463467997E+03  0.00000000000E+00 0. -1.
      -12    1    3    3    0    0  0.10150825809E+02  0.64890976935E+01  0.29163730217E+01  0.12395680098E+02  0.00000000000E+00 0.  1.
        2    1    1    2  501    0  0.70086882045E+02  0.63451012546E+02  0.67993137730E+03  0.68647278160E+03  0.00000000000E+00 0. -1.
</event>
<event>
 5   1  0.6181100E+00  0.7967007E+02  0.7957747E-01  0.1328454E+00
       -2   -1    0    0    0  501  0.00000000000E+00  0.00000000000E+00  0.11091910873E+03  0.11091910873E+03  0.00000000000E+00 0.  1.
        1   -1    0    0  501    0  0.00000000000E+00  0.00000000000E+00 -0.14306193165E+02  0.14306193165E+02  0.00000000000E+00 0. -1.
      -24    2    1    2    0    0  0.00000000000E+00  0.00000000000E+00  0.96612915566E+02  0.12522530190E+03  0.79670074563E+02 0.  0.
       11    1    3    3    0    0  0.66136453216E+01  0.39086229876E+02  0.42146987878E+02  0.57860541456E+02  0.00000000000E+00 0. -1.
      -12    1    3    3    0    0 -0.66136453216E+01 -0.39086229876E+02  0.54465927687E+02  0.67364760440E+02  0.00000000000E+00 0.  1.
</event>
<event>
 5   1  0.6181100E+00  0.8048993E+02  0.7957747E-01  0.1326253E+00
        1   -1    0    0  501    0  0.00000000000E+00  0.00000000000E+00  0.95994048876E+02  0.95994048876E+02  0.00000000000E+00 0. -1.
       -2   -1    0    0    0  501  0.00000000000E+00  0.00000000000E+00 -0.16872474871E+02  0.16872474871E+02  0.00000000000E+00 0.  1.
      -24    2    1    2    0    0  0.00000000000E+00  0.00000000000E+00  0.79121574005E+02  0.11286652375E+03  0.80489929243E+02 0.  0.
       11    1    3    3    0    0  0.89191178356E+01  0.28352714194E+02  0.15129132683E+01  0.29760980691E+02  0.00000000000E+00 0. -1.
      -12    1    3    3    0    0 -0.89191178356E+01 -0.28352714194E+02  0.77608660737E+02  0.83105543055E+02  0.00000000000E+00 0.  1.
</event>
<event>
 5   1  0.6181100E+00  0.8085151E+02  0.7957747E-01  0.1325292E+00
       -2   -1    0    0    0  501  0.00000000000E+00  0.00000000000E+00  0.64625224239E+01  0.64625224239E+01  0.00000000000E+00 0.  1.
        1   -1    0    0  501    0  0.00000000000E+00  0.00000000000E+00 -0.25287981788E+03  0.25287981788E+03  0.00000000000E+00 0. -1.
      -24    2    1    2    0    0  0.00000000000E+00  0.00000000000E+00 -0.24641729545E+03  0.25934234030E+03  0.80851505702E+02 0.  0.
       11    1    3    3    0    0 -0.17720628657E+02  0.36046633433E+02 -0.13785917330E+03  0.14359154615E+03  0.00000000000E+00 0. -1.
      -12    1    3    3    0    0  0.17720628657E+02 -0.36046633433E+02 -0.10855812215E+03  0.11575079415E+03  0.00000000000E+00 0.  1.
</event>
<event>
 5   1  0.6181100E+00  0.6919880E+02  0.7957747E-01  0.1359507E+00
       -2   -1    0    0    0  501  0.00000000000E+00  0.00000000000E+00  0.10197953991E+03  0.10197953991E+03  0.00000000000E+00 0.  1.
        1   -1    0    0  501    0  0.00000000000E+00  0.00000000000E+00 -0.11738809917E+02  0.11738809917E+02  0.00000000000E+00 0. -1.
      -24    2    1    2    0    0  0.00000000000E+00  0.00000000000E+00  0.90240729991E+02  0.11371834983E+03  0.69198798673E+02 0.  0.
       11    1    3    3    0    0  0.32769172922E+02 -0.15226494581E+00  0.26874173007E+02  0.42379984113E+02  0.00000000000E+00 0. -1.
      -12    1    3    3    0    0 -0.32769172922E+02  0.15226494581E+00  0.63366556983E+02  0.71338365712E+02  0.00000000000E+00 0.  1.
</event>
<event>
 5   1  0.6181100E+00  0.8190885E+02  0.7957747E-01  0.1322513E+00
        3   -1    0    0  501    0  0.00000000000E+00  0.00000000000E+00  0.16478638130E+02  0.16478638130E+02  0.00000000000E+00 0. -1.
       -4   -1    0    0    0  501  0.00000000000E+00  0.00000000000E+00 -0.10178420640E+03  0.10178420640E+03  0.00000000000E+00 0.  1.
      -24    2    1    2    0    0  0.00000000000E+00  0.00000000000E+00 -0.85305568268E+02  0.11826284453E+03  0.81908854334E+02 0.  0.
       11    1    3    3    0    0 -0.99287221995E+01 -0.17305591653E+01  0.14660192044E+02  0.17790322940E+02  0.00000000000E+00 0. -1.
      -12    1    3    3    0    0  0.99287221995E+01  0.17305591653E+01 -0.99965760312E+02  0.10047252159E+03  0.00000000000E+00 0.  1.
</event>
<event>
 6   2  0.6181100E+00  0.8372260E+02  0.7957747E-01  0.1317855E+00
        1   -1    0    0  502    0  0.00000000000E+00  0.00000000000E+00  0.54979723712E+02  0.54979723712E+02  0.00000000000E+00 0. -1.
       -2   -1    0    0    0  501  0.00000000000E+00  0.00000000000E+00 -0.65807779334E+02  0.65807779334E+02  0.00000000000E+00 0.  1.
      -24    2    1    2    0    0 -0.17670393190E+02  0.14849068708E+02 -0.31841987994E+02  0.89573355761E+02  0.80478172357E+02 0.  0.
       11    1    3    3    0    0 -0.22299500463E+02  0.69048076449E+01  0.23705506693E+02  0.33270033621E+02  0.00000000000E+00 0. -1.
      -12    1    3    3    0    0  0.46291072735E+01  0.79442610631E+01 -0.55547494688E+02  0.56303322141E+02  0.00000000000E+00 0.  1.
       21    1    1    2  502  501  0.17670393190E+02 -0.14849068708E+02  0.21013932373E+02  0.31214147285E+02  0.00000000000E+00 0. -1.
</event>
<event>
 5   1  0.6181100E+00  0.6520853E+02  0.7957747E-01  0.1373034E+00
        1   -1    0    0  501    0  0.00000000000E+00  0.00000000000E+00  0.11536100987E+02  0.11536100987E+02  0.00000000000E+00 0. -1.
       -2   -1    0    0    0  501  0.00000000000E+00  0.00000000000E+00 -0.92148812026E+02  0.92148812026E+02  0.00000000000E+00 0.  1.
      -24    2    1    2    0    0  0.00000000000E+00  0.00000000000E+00 -0.80612711039E+02  0.10368491301E+03  0.65208527091E+02 0.  0.
       11    1    3    3    0    0  0.24842257148E+02  0.10808433543E+02 -0.11462014702E+02  0.29416623819E+02  0.00000000000E+00 0. -1.
      -12    1    3    3    0    0 -0.24842257148E+02 -0.10808433543E+02 -0.69150696337E+02  0.74268289194E+02  0.00000000000E+00 0.  1.
</event>
<event>
 5   1  0.6181100E+00  0.8009750E+02  0.7957747E-01  0.1327303E+00
        1   -1    0    0  501    0  0.00000000000E+00  0.00000000000E+00  0.74736158559E+02  0.74736158559E+02  0.00000000000E+00 0. -1.
       -2   -1    0    0    0  501  0.00000000000E+00  0.00000000000E+00 -0.21460863349E+02  0.21460863349E+02  0.00000000000E+00 0.  1.
      -24    2    1    2    0    0  0.00000000000E+00  0.00000000000E+00  0.53275295210E+02  0.96197021908E+02  0.80097502734E+02 0.  0.
       11    1    3    3    0    0  0.28518652325E+02 -0.25025373081E+02  0.11242373979E+02  0.39572386850E+02  0.00000000000E+00 0. -1.
      -12    1    3    3    0    0 -0.28518652325E+02  0.25025373081E+02  0.42032921231E+02  0.56624635059E+02  0.00000000000E+00 0.  1.
</event>
<event>
 6   2  0.6181100E+00  0.1236252E+03  0.7957747E-01  0.1240133E+00
       21   -1    0    0  501  502  0.00000000000E+00  0.00000000000E+00  0.59360628090E+02  0.59360628090E+02  0.00000000000E+00 0. -1.
        1   -1    0    0  502    0  0.00000000000E+00  0.00000000000E+00 -0.19260789298E+03  0.19260789298E+03  0.00000000000E+00 0. -1.
      -24    2    1    2    0    0 -0.60942282055E+02 -0.56938444449E+02 -0.47742022956E+02  0.13252357728E+03  0.91253764751E+02 0.  0.
       11    1    3    3    0    0 -0.46126951057E+02  0.15468478858E+02 -0.10534122336E+02  0.49778882926E+02  0.00000000000E+00 0. -1.
      -12    1    3    3    0    0 -0.14815330999E+02 -0.72406923307E+02 -0.37207900620E+02  0.82744694355E+02  0.00000000000E+00 0.  1.
        2    1    1    2  501    0  0.60942282055E+02  0.56938444449E+02 -0.85505241934E+02  0.11944494379E+03  0.00000000000E+00 0. -1.
</event>
<event>
 5   1  0.6181100E+00  0.8008793E+02  0.7957747E-01  0.1327329E+00
        1   -1    0    0  501    0  0.00000000000E+00  0.00000000000E+00  0.31620102622E+02  0.31620102622E+02  0.00000000000E+00 0. -1.
       -2   -1    0    0    0  501  0.00000000000E+00  0.00000000000E+00 -0.50712012372E+02  0.50712012372E+02  0.00000000000E+00 0.  1.
      -24    2    1    2    0    0  0.00000000000E+00  0.00000000000E+00 -0.19091909750E+02  0.82332114994E+02  0.80087927564E+02 0.  0.
       11    1    3    3    0    0 -0.28841390179E+02 -0.10057025769E+02  0.17074632365E+02  0.34993036810E+02  0.00000000000E+00 0. -1.
      -12    1    3    3    0    0  0.28841390179E+02  0.10057025769E+02 -0.36166542115E+02  0.47339078184E+02  0.00000000000E+00 0.  1.
</event>
<event>
 6   2  0.6181100E+00  0.8706978E+02  0.7957747E-01  0.1309600E+00
       -2   -1    0    0    0  501  0.00000000000E+00  0.00000000000E+00  0.66933497881E+02  0.66933497881E+02  0.00000000000E+00 0.  1.
        1   -1    0    0  502    0  0.00000000000E+00  0.00000000000E+00 -0.13805938979E+03  0.13805938979E+03  0.00000000000E+00 0. -1.
      -24    2    1    2    0    0  0.16390058248E+01  0.31348623486E+02 -0.11917794422E+03  0.14759582969E+03  0.81214062933E+02 0.  0.
       11    1    3    3    0    0 -0.95841939093E+01 -0.25447882193E+02 -0.53706846933E+02  0.60198645238E+02  0.00000000000E+00 0. -1.
      -12    1    3    3    0    0  0.11223199734E+02  0.56796505680E+02 -0.65471097286E+02  0.87397184449E+02  0.00000000000E+00 0.  1.
       21    1    1    2  502  501 -0.16390058248E+01 -0.31348623486E+02  0.48052052308E+02  0.57397057987E+02  0.00000000000E+00 0.  1.
</event>
<event>
 5   1  0.6181100E+00  0.8103403E+02  0.7957747E-01  0.1324809E+00
        1   -1    0    0  501    0  0.00000000000E+00  0.00000000000E+00  0.33465437731E+01  0.33465437731E+01  0.00000000000E+00 0. -1.
       -2   -1    0    0    0  501  0.00000000000E+00  0.00000000000E+00 -0.49054440369E+03  0.49054440369E+03  0.00000000000E+00 0.  1.
      -24    2    1    2    0    0  0.00000000000E+00  0.00000000000E+00 -0.48719785991E+03  0.49389094746E+03  0.81034025436E+02 0.  0.
       11    1    3    3    0    0  0.16510883492E+00  0.31138872477E+02 -0.85605459944E+02  0.91093092012E+02  0.00000000000E+00 0. -1.
      -12    1    3    3    0    0 -0.16510883492E+00 -0.31138872477E+02 -0.40159239997E+03  0.40279785545E+03  0.00000000000E+00 0.  1.
</event>
<event>
 5   1  0.6181100E+00  0.7520363E+02  0.7957747E-01  0.1340995E+00
       -4   -1    0    0    0  501  0.00000000000E+00  0.00000000000E+00  0.69834440209E+01  0.69834440209E+01  0.00000000000E+00 0.  1.
        3   -1    0    0  501    0  0.00000000000E+00  0.00000000000E+00 -0.20246406342E+03  0.20246406342E+03  0.00000000000E+00 0. -1.
      -24    2    1    2    0    0  0.00000000000E+00  0.00000000000E+00 -0.19548061940E+03  0.20944750744E+03  0.75203628985E+02 0.  0.
       11    1    3    3    0    0 -0.23729457079E+02  0.23964859657E+02 -0.14405085545E+03  0.14794610704E+03  0.00000000000E+00 0. -1.
      -12    1    3    3    0    0  0.23729457079E+02 -0.23964859657E+02 -0.51429763945E+02  0.61501400399E+02  0.00000000000E+00 0.  1.
</event>
<event>
 5   1  0.6181100E+00  0.8118872E+02  0.7957747E-01  0.1324400E+00
       -2   -1    0    0    0  501  0.00000000000E+00  0.00000000000E+00  0.41547450223E+02  0.41547450223E+02  0.00000000000E+00 0.  1.
        1   -1    0    0  501    0  0.00000000000E+00  0.00000000000E+00 -0.39663129062E+02  0.39663129062E+02  0.00000000000E+00 0. -1.
      -24    2    1    2    0    0  0.00000000000E+00  0.00000000000E+00  0.18843211604E+01  0.81210579285E+02  0.81188715482E+02 0.  0.
       11    1    3    3    0    0  0.12356398192E+02  0.38364448831E+02 -0.38955009976E+01  0.40493041852E+02  0.00000000000E+00 0. -1.
      -12    1    3    3    0    0 -0.12356398192E+02 -0.38364448831E+02  0.57798221580E+01  0.40717537433E+02  0.00000000000E+00 0.  1.
</event>
<event>
 6   2  0.6181100E+00  0.1210494E+03  0.7957747E-01  0.1244097E+00
        3   -1    0    0  502    0  0.00000000000E+00  0.00000000000E+00  0.14397895689E+02  0.14397895689E+02  0.00000000000E+00 0. -1.
       21   -1    0    0  501  502  0.00000000000E+00  0.00000000000E+00 -0.93513579268E+03  0.93513579268E+03  0.00000000000E+00 0. -1.
      -24    2    1    2    0    0 -0.57176575446E+01  0.83757279527E+02 -0.30572291653E+03  0.32881523393E+03  0.87206553056E+02 0.  0.
       11    1    3    3    0    0  0.78213021780E+01  0.38019872638E+02 -0.30163987555E+02  0.49158413607E+02  0.00000000000E+00 0. -1.
      -12    1    3    3    0    0 -0.13538959723E+02  0.45737406889E+02 -0.27555892897E+03  0.27965682033E+03  0.00000000000E+00 0.  1.
        4    1    1    2  501    0  0.57176575446E+01 -0.83757279527E+02 -0.61501498047E+03  0.62071845444E+03  0.00000000000E+00 0. -1.
</event>
<event>
 6   2  0.6181100E+00  0.8932256E+02  0.7957747E-01  0.1304276E+00
       -2   -1    0    0    0  501  0.00000000000E+00  0.00000000000E+00  0.27073872863E+03  0.27073872863E+03  0.00000000000E+00 0.  1.
       21   -1    0    0  501  502  0.00000000000E+00  0.00000000000E+00 -0.15890542505E+02  0.15890542505E+02  0.00000000000E+00 0.  1.
      -24    2    1    2    0    0 -0.35913043849E+02  0.17101674633E+02  0.19833720105E+03  0.21752279222E+03  0.79976908051E+02 0.  0.
       11    1    3    3    0    0  0.18184281528E+02 -0.51054857571E+01  0.10982656261E+03  0.11143880803E+03  0.00000000000E+00 0. -1.
      -12    1    3    3    0    0 -0.54097325378E+02  0.22207160390E+02  0.88510638444E+02  0.10608398420E+03  0.00000000000E+00 0.  1.
       -1    1    1    2    0  502  0.35913043849E+02 -0.17101674633E+02  0.56510985069E+02  0.69106478909E+02  0.00000000000E+00 0.  1.
</event>
<event>
 6   2  0.6181100E+00  0.8077297E+02  0.7957747E-01  0.1325500E+00
       21   -1    0    0  501  502  0.00000000000E+00  0.00000000000E+00  0.17305814685E+03  0.17305814685E+03  0.00000000000E+00 0. -1.
       -2   -1    0    0    0  501  0.00000000000E+00  0.00000000000E+00 -0.24069274544E+02  0.24069274544E+02  0.00000000000E+00 0.  1.
      -24    2    1    2    0    0  0.43289829223E+01 -0.34228928104E+02  0.13974456033E+03  0.16140884197E+03  0.73033639593E+02 0.  0.
       11    1    3    3    0    0 -0.29056847175E+02  0.26134912292E+01  0.69254399158E+02  0.75148536292E+02  0.00000000000E+00 0. -1.
      -12    1    3    3    0    0  0.33385830097E+02 -0.36842419333E+02  0.70490161169E+02  0.86260305675E+02  0.00000000000E+00 0.  1.
       -1    1    1    2    0  502 -0.43289829223E+01  0.34228928104E+02  0.92443119798E+01  0.35718579427E+02  0.00000000000E+00 0.  1.
</event>
<event>
 5   1  0.6181100E+00  0.8174841E+02  0.7957747E-01  0.1322932E+00
       -2   -1    0    0    0  501  0.00000000000E+00  0.00000000000E+00  0.12534834241E+02  0.12534834241E+02  0.00000000000E+00 0.  1.
        1   -1    0    0  501    0  0.00000000000E+00  0.00000000000E+00 -0.13328461863E+03  0.13328461863E+03  0.00000000000E+00 0. -1.
      -24    2    1    2    0    0  0.00000000000E+00  0.00000000000E+00 -0.12074978439E+03  0.14581945287E+03  0.81748409194E+02 0.  0.
       11    1    3    3    0    0 -0.25774174776E+02 -0.30770810584E+02 -0.46609897126E+02  0.61511245959E+02  0.00000000000E+00 0. -1.
      -12    1    3    3    0    0  0.25774174776E+02  0.30770810584E+02 -0.74139887261E+02  0.84308206910E+02  0.00000000000E+00 0.  1.
</event>
<event>
 5   1  0.6181100E+00  0.8029366E+02  0.7957747E-01  0.1326777E+00
        1   -1    0    0  501    0  0.00000000000E+00  0.00000000000E+00  0.16665078973E+02  0.16665078973E+02  0.00000000000E+00 0. -1.
       -2   -1    0    0    0  501  0.00000000000E+00  0.00000000000E+00 -0.96715279915E+02  0.96715279915E+02  0.00000000000E+00 0.  1.
      -24    2    1    2    0    0  0.00000000000E+00  0.00000000000E+00 -0.80050200942E+02  0.11338035889E+03  0.80293655483E+02 0.  0.
       11    1    3    3    0    0  0.69837093771E+01  0.13091402757E+02  0.12651226574E+02  0.19498988605E+02  0.00000000000E+00 0. -1.
      -12    1    3    3    0    0 -0.69837093771E+01 -0.13091402757E+02 -0.92701427515E+02  0.93881370283E+02  0.00000000000E+00 0.  1.
</event>
<event>
 6   2  0.6181100E+00  0.1463368E+03  0.7957747E-01  0.1209272E+00
        1   -1    0    0  502    0  0.00000000000E+00  0.00000000000E+00  0.99778798889E+03  0.99778798889E+03  0.00000000000E+00 0. -1.
       21   -1    0    0  501  502  0.00000000000E+00  0.00000000000E+00 -0.18862940163E+02  0.18862940163E+02  0.00000000000E+00 0. -1.
      -24    2    1    2    0    0 -0.65564276507E+02 -0.10625592567E+03  0.45030828846E+03  0.47348918949E+03  0.76324712985E+02 0.  0.
       11    1    3    3    0    0 -0.71220278040E+02 -0.11411505124E+03  0.43545691131E+03  0.45576012828E+03  0.00000000000E+00 0. -1.
      -12    1    3    3    0    0  0.56560015330E+01  0.78591255691E+01  0.14851377159E+02  0.17729061215E+02  0.00000000000E+00 0.  1.
        2    1    1    2  501    0  0.65564276507E+02  0.10625592567E+03  0.52861676026E+03  0.54316173956E+03  0.00000000000E+00 0. -1.
</event>
<event>
 5   1  0.6181100E+00  0.8049195E+02  0.7957747E-01  0.1326248E+00
       -2   -1    0    0    0  501  0.00000000000E+00  0.00000000000E+00  0.25278040351E+02  0.25278040351E+02  0.00000000000E+00 0.  1.
        1   -1    0    0  501    0  0.00000000000E+00  0.00000000000E+00 -0.64076903094E+02  0.64076903094E+02  0.00000000000E+00 0. -1.
      -24    2    1    2    0    0  0.00000000000E+00  0.00000000000E+00 -0.38798862743E+02  0.89354943445E+02  0.80491950951E+02 0.  0.
       11    1    3    3    0    0 -0.20018372912E+02  0.24723347425E+02 -0.46766732168E+02  0.56560643557E+02  0.00000000000E+00 0. -1.
      -12    1    3    3    0    0  0.20018372912E+02 -0.24723347425E+02  0.79678694251E+01  0.32794299887E+02  0.00000000000E+00 0.  1.
</event>
<event>
 5   1  0.6181100E+00  0.8009604E+02  0.7957747E-01  0.1327307E+00
        3   -1    0    0  501    0  0.00000000000E+00  0.00000000000E+00  0.55284084622E+02  0.55284084622E+02  0.00000000000E+00 0. -1.
       -4   -1    0    0    0  501  0.00000000000E+00  0.00000000000E+00 -0.29010949572E+02  0.29010949572E+02  0.00000000000E+00 0.  1.
      -24    2    1    2    0    0  0.00000000000E+00  0.00000000000E+00  0.26273135050E+02  0.84295034194E+02  0.80096037133E+02 0.  0.
       11    1    3    3    0    0  0.12832112798E+02  0.15885540340E+02  0.49393016899E+02  0.53447952525E+02  0.00000000000E+00 0. -1.
      -12    1    3    3    0    0 -0.12832112798E+02 -0.15885540340E+02 -0.23119881849E+02  0.30847081669E+02  0.00000000000E+00 0.  1.
</event>
<event>
 5   1  0.6181100E+00  0.7818127E+02  0.7957747E-01  0.1332529E+00
        3   -1    0    0  501    0  0.00000000000E+00  0.00000000000E+00  0.16845516139E+02  0.16845516139E+02  0.00000000000E+00 0. -1.
       -4   -1    0    0    0  501  0.00000000000E+00  0.00000000000E+00 -0.90711237684E+02  0.90711237684E+02  0.00000000000E+00 0.  1.
      -24    2    1    2    0    0  0.00000000000E+00  0.00000000000E+00 -0.73865721545E+02  0.10755675382E+03  0.78181266769E+02 0.  0.
       11    1    3    3    0    0 -0.35144025418E+02  0.15913725870E+02 -0.45604189608E+02  0.59733502354E+02  0.00000000000E+00 0. -1.
      -12    1    3    3    0    0  0.35144025418E+02 -0.15913725870E+02 -0.28261531937E+02  0.47823251469E+02  0.00000000000E+00 0.  1.
</event>
<event>
 5   1  0.6181100E+00  0.8064246E+02  0.7957747E-01  0.1325847E+00
       -2   -1    0    0    0  501  0.00000000000E+00  0.00000000000E+00  0.83597111899E+01  0.83597111899E+01  0.00000000000E+00 0.  1.
        1   -1    0    0  501    0  0.00000000000E+00  0.00000000000E+00 -0.19448059480E+03  0.19448059480E+03  0.00000000000E+00 0. -1.
      -24    2    1    2    0    0  0.00000000000E+00  0.00000000000E+00 -0.18612088361E+03  0.20284030599E+03  0.80642460393E+02 0.  0.
       11    1    3    3    0    0  0.22204825723E+02  0.18151111923E+02 -0.16434987616E+03  0.16683344671E+03  0.00000000000E+00 0. -1.
      -12    1    3    3    0    0 -0.22204825723E+02 -0.18151111923E+02 -0.21771007453E+02  0.36006859276E+02  0.00000000000E+00 0.  1.
</event>
<event>
 5   1  0.6181100E+00  0.7945956E+02  0.7957747E-01  0.1329024E+00
        1   -1    0    0  501    0  0.00000000000E+00  0.00000000000E+00  0.10311503280E+03  0.10311503280E+03  0.00000000000E+00 0. -1.
       -2   -1    0    0    0  501  0.00000000000E+00  0.00000000000E+00 -0.15307714468E+02  0.15307714468E+02  0.00000000000E+00 0.  1.
      -24    2    1    2    0    0  0.00000000000E+00  0.00000000000E+00  0.87807318329E+02  0.11842274727E+03  0.79459561525E+02 0.  0.
       11    1    3    3    0    0  0.49714011631E-01 -0.34879858755E+02  0.72253611484E+02  0.80232109475E+02  0.00000000000E+00 0. -1.
      -12    1    3    3    0    0 -0.49714011631E-01  0.34879858755E+02  0.15553706844E+02  0.38190637791E+02  0.00000000000E+00 0.  1.
</event>
<event>
 5   1  0.6181100E+00  0.7869300E+02  0.7957747E-01  0.1331117E+00
       -2   -1    0    0    0  501  0.00000000000E+00  0.00000000000E+00  0.80986617956E+01  0.80986617956E+01  0.00000000000E+00 0.  1.
        1   -1    0    0  501    0  0.00000000000E+00  0.00000000000E+00 -0.19116086685E+03  0.19116086685E+03  0.00000000000E+00 0. -1.
      -24    2    1    2    0    0  0.00000000000E+00  0.00000000000E+00 -0.18306220506E+03  0.19925952865E+03  0.78693003734E+02 0.  0.
       11    1    3    3    0    0  0.18396800288E+02  0.22683000818E+02 -0.15829376018E+03  0.16096544753E+03  0.00000000000E+00 0. -1.
      -12    1    3    3    0    0 -0.18396800288E+02 -0.22683000818E+02 -0.24768444875E+02  0.38294081115E+02  0.00000000000E+00 0.  1.
</event>
<event>
 5   1  0.6181100E+00  0.8044582E+02  0.7957747E-01  0.1326371E+00
        1   -1    0    0  501    0  0.00000000000E+00  0.00000000000E+00  0.15247186640E+03  0.15247186640E+03  0.00000000000E+00 0. -1.
       -2   -1    0    0    0  501  0.00000000000E+00  0.00000000000E+00 -0.10611023837E+02  0.10611023837E+02  0.00000000000E+00 0.  1.
      -24    2    1    2    0    0  0.00000000000E+00  0.00000000000E+00  0.14186084256E+03  0.16308289024E+03  0.80445822983E+02 0.  0.
       11    1    3    3    0    0  0.37043613610E+02 -0.15371495073E+02  0.64724805758E+02  0.76143369051E+02  0.00000000000E+00 0. -1.
      -12    1    3    3    0    0 -0.37043613610E+02  0.15371495073E+02  0.77136036805E+02  0.86939521186E+02  0.00000000000E+00 0.  1.
</event>
<event>
 5   1  0.6181100E+00  0.8095292E+02  0.7957747E-01  0.1325023E+00
        1   -1    0    0  501    0  0.00000000000E+00  0.00000000000E+00  0.22258024236E+02  0.22258024236E+02  0.00000000000E+00 0. -1.
       -2   -1    0    0    0  501  0.00000000000E+00  0.00000000000E+00 -0.73606884762E+02  0.73606884762E+02  0.00000000000E+00 0.  1.
      -24    2    1    2    0    0  0.00000000000E+00  0.00000000000E+00 -0.51348860526E+02  0.95864908998E+02  0.80952920267E+02 0.  0.
       11    1    3    3    0    0 -0.21875260255E+02  0.79111474148E+01  0.13551756519E+02  0.26921429557E+02  0.00000000000E+00 0. -1.
      -12    1    3    3    0    0  0.21875260255E+02 -0.79111474148E+01 -0.64900617045E+02  0.68943479441E+02  0.00000000000E+00 0.  1.
</event>
<event>
 5   1  0.6181100E+00  0.8113289E+02  0.7957747E-01  0.1324548E+00
        1   -1    0    0  501    0  0.00000000000E+00  0.00000000000E+00  0.66263440139E+02  0.66263440139E+02  0.00000000000E+00 0. -1.
       -2   -1    0    0    0  501  0.00000000000E+00  0.00000000000E+00 -0.24834759802E+02  0.24834759802E+02  0.00000000000E+00 0.  1.
      -24    2    1    2    0    0  0.00000000000E+00  0.00000000000E+00  0.41428680337E+02  0.91098199942E+02  0.81132893934E+02 0.  0.
       11    1    3    3    0    0  0.35916135623E+01  0.40364911111E+02  0.22788041525E+02  0.46492156043E+02  0.00000000000E+00 0. -1.
      -12    1    3    3    0    0 -0.35916135623E+01 -0.40364911111E+02  0.18640638812E+02  0.44606043899E+02  0.00000000000E+00 0.  1.
</event>
<event>
 6   2  0.6181100E+00  0.8118233E+02  0.7957747E-01  0.1324417E+00
        1   -1    0    0  502    0  0.00000000000E+00  0.00000000000E+00  0.16571106671E+03  0.16571106671E+03  0.00000000000E+00 0. -1.
       21   -1    0    0  501  502  0.00000000000E+00  0.00000000000E+00 -0.26445621159E+02  0.26445621159E+02  0.00000000000E+00 0.  1.
      -24    2    1    2    0    0  0.41685977709E+02 -0.12349028847E+02  0.11933150265E+03  0.14432802146E+03  0.68559105907E+02 0.  0.
       11    1    3    3    0    0 -0.28536957966E+01  0.19314754429E+02  0.62527838809E+02  0.65505220742E+02  0.00000000000E+00 0. -1.
      -12    1    3    3    0    0  0.44539673506E+02 -0.31663783276E+02  0.56803663845E+02  0.78822800721E+02  0.00000000000E+00 0.  1.
        2    1    1    2  501    0 -0.41685977709E+02  0.12349028847E+02  0.19933942901E+02  0.47828666411E+02  0.00000000000E+00 0. -1.
</event>
<event>
 6   2  0.6181100E+00  0.8261156E+02  0.7957747E-01  0.1320693E+00
       -2   -1    0    0    0  501  0.00000000000E+00  0.00000000000E+00  0.33753779695E+03  0.33753779695E+03  0.00000000000E+00 0.  1.
        1   -1    0    0  502    0  0.00000000000E+00  0.00000000000E+00 -0.97922780087E+01  0.97922780087E+01  0.00000000000E+00 0. -1.
      -24    2    1    2    0    0  0.89883029047E+01  0.21532286128E+02  0.18388450863E+03  0.20158914309E+03  0.79247972603E+02 0.  0.
       11    1    3    3    0    0  0.20440186338E+02 -0.23926041741E+02  0.44271600281E+02  0.54316031541E+02  0.00000000000E+00 0. -1.
      -12    1    3    3    0    0 -0.11451883433E+02  0.45458327869E+02  0.13961290835E+03  0.14727311155E+03  0.00000000000E+00 0.  1.
       21    1    1    2  502  501 -0.89883029047E+01 -0.21532286128E+02  0.14386101031E+03  0.14574093187E+03  0.00000000000E+00 0.  1.
</event>
<event>
 5   1  0.6181100E+00  0.5968986E+02  0.7957747E-01  0.1393682E+00
        3   -1    0    0  501    0  0.00000000000E+00  0.00000000000E+00  0.19240041493E+02  0.19240041493E+02  0.00000000000E+00 0. -1.
       -4   -1    0    0    0  501  0.00000000000E+00  0.00000000000E+00 -0.46295113232E+02  0.46295113232E+02  0.00000000000E+00 0.  1.
      -24    2    1    2    0    0  0.00000000000E+00  0.00000000000E+00 -0.27055071739E+02  0.65535154725E+02  0.59689861769E+02 0.  0.
       11    1    3    3    0    0 -0.21715236211E+02 -0.17838153102E+02 -0.24559863714E+02  0.37322085894E+02  0.00000000000E+00 0. -1.
      -12    1    3    3    0    0  0.21715236211E+02  0.17838153102E+02 -0.24952080251E+01  0.28213068832E+02  0.00000000000E+00 0.  1.
</event>
<event>
 6   2  0.6181100E+00  0.1037577E+03  0.7957747E-01  0.1273905E+00
       21   -1    0    0  501  502  0.00000000000E+00  0.00000000000E+00  0.13614366923E+02  0.13614366923E+02  0.00000000000E+00 0. -1.
        1   -1    0    0  502    0  0.00000000000E+00  0.00000000000E+00 -0.46617224005E+03  0.46617224005E+03  0.00000000000E+00 0. -1.
      -24    2    1    2    0    0 -0.50914481112E+02  0.96725606578E+01 -0.34720392626E+03  0.36237580280E+03  0.89887781301E+02 0.  0.
       11    1    3    3    0    0 -0.72640421947E+02  0.14623742553E+02 -0.31226482584E+03  0.32093582880E+03  0.00000000000E+00 0. -1.
      -12    1    3    3    0    0  0.21725940835E+02 -0.49511818952E+01 -0.34939100414E+02  0.41439973999E+02  0.00000000000E+00 0.  1.
        2    1    1    2  501    0  0.50914481112E+02 -0.96725606578E+01 -0.10535394687E+03  0.11741080418E+03  0.00000000000E+00 0. -1.
</event>
<event>
 5   1  0.6181100E+00  0.7992222E+02  0.7957747E-01  0.1327774E+00
        1   -1    0    0  501    0  0.00000000000E+00  0.00000000000E+00  0.16207918825E+03  0.16207918825E+03  0.00000000000E+00 0. -1.
       -2   -1    0    0    0  501  0.00000000000E+00  0.00000000000E+00 -0.98525303227E+01  0.98525303227E+01  0.00000000000E+00 0.  1.
      -24    2    1    2    0    0  0.00000000000E+00  0.00000000000E+00  0.15222665793E+03  0.17193171858E+03  0.79922215108E+02 0.  0.
       11    1    3    3    0    0  0.37154010952E+02  0.12052284057E+02  0.94267030620E+02  0.10203896875E+03  0.00000000000E+00 0. -1.
      -12    1    3    3    0    0 -0.37154010952E+02 -0.12052284057E+02  0.57959627310E+02  0.69892749830E+02  0.00000000000E+00 0.  1.
</event>
<event>
 4   3  0.6181100E+00  0.1923377E+03  0.7957747E-01  0.1162389E+00
       21   -1    0    0  503  502  0.00000000000E+00  0.00000000000E+00  0.17843697585E+03  0.17843697585E+03  0.00000000000E+00 0.  1.
       21   -1    0    0  501  503  0.00000000000E+00  0.00000000000E+00 -0.22045146323E+03  0.22045146323E+03  0.00000000000E+00 0. -1.
        6    1    1    2  501    0  0.54161471928E+02  0.64275474182E+02 -0.69681413966E+02  0.20457101719E+03  0.17300000000E+03 0. -1.
       -6    1    1    2    0  502 -0.54161471928E+02 -0.64275474182E+02  0.27666926587E+02  0.19431742189E+03  0.17300000000E+03 0.  1.
</event>
<event>
 5   1  0.6181100E+00  0.7731131E+02  0.7957747E-01  0.1334957E+00
       -2   -1    0    0    0  501  0.00000000000E+00  0.00000000000E+00  0.78522465762E+02  0.78522465762E+02  0.00000000000E+00 0.  1.
        1   -1    0    0  501    0  0.00000000000E+00  0.00000000000E+00 -0.19029710118E+02  0.19029710118E+02  0.00000000000E+00 0. -1.
      -24    2    1    2    0    0  0.00000000000E+00  0.00000000000E+00  0.59492755644E+02  0.97552175881E+02  0.77311312529E+02 0.  0.
       11    1    3    3    0    0 -0.46632585203E+01  0.16848556091E+02 -0.13756608787E+02  0.22245541299E+02  0.00000000000E+00 0. -1.
      -12    1    3    3    0    0  0.46632585203E+01 -0.16848556091E+02  0.73249364431E+02  0.75306634581E+02  0.00000000000E+00 0.  1.
</event>
<event>
 5   1  0.6181100E+00  0.7925461E+02  0.7957747E-01  0.1329581E+00
       -4   -1    0    0    0  501  0.00000000000E+00  0.00000000000E+00  0.26249027955E+02  0.26249027955E+02  0.00000000000E+00 0.  1.
        3   -1    0    0  501    0  0.00000000000E+00  0.00000000000E+00 -0.59824051042E+02  0.59824051042E+02  0.00000000000E+00 0. -1.
      -24    2    1    2    0    0  0.00000000000E+00  0.00000000000E+00 -0.33575023087E+02  0.86073078997E+02  0.79254607139E+02 0.  0.
       11    1    3    3    0    0  0.62945820793E+01  0.11348200940E+02 -0.57450978136E+02  0.58898372786E+02  0.00000000000E+00 0. -1.
      -12    1    3    3    0    0 -0.62945820793E+01 -0.11348200940E+02  0.23875955049E+02  0.27174706211E+02  0.00000000000E+00 0.  1.
</event>
<event>
 5   1  0.6181100E+00  0.8028943E+02  0.7957747E-01  0.1326789E+00
        3   -1    0    0  501    0  0.00000000000E+00  0.00000000000E+00  0.31832926405E+02  0.31832926405E+02  0.00000000000E+00 0. -1.
       -4   -1    0    0    0  501  0.00000000000E+00  0.00000000000E+00 -0.50626771455E+02  0.50626771455E+02  0.00000000000E+00 0.  1.
      -24    2    1    2    0    0  0.00000000000E+00  0.00000000000E+00 -0.18793845050E+02  0.82459697860E+02  0.80289433672E+02 0.  0.
       11    1    3    3    0    0 -0.36453598154E+02 -0.13669264904E+02 -0.19453678914E+02  0.43521939808E+02  0.00000000000E+00 0. -1.
      -12    1    3    3    0    0  0.36453598154E+02  0.13669264904E+02  0.65983386390E+00  0.38937758052E+02  0.00000000000E+00 0.  1.
</event>
<event>
 5   1  0.6181100E+00  0.7980894E+02  0.7957747E-01  0.1328079E+00
        3   -1    0    0  501    0  0.00000000000E+00  0.00000000000E+00  0.59757416003E+01  0.59757416003E+01  0.00000000000E+00 0. -1.
       -4   -1    0    0    0  501  0.00000000000E+00  0.00000000000E+00 -0.26647179968E+03  0.26647179968E+03  0.00000000000E+00 0.  1.
      -24    2    1    2    0    0  0.00000000000E+00  0.00000000000E+00 -0.26049605808E+03  0.27244754128E+03  0.79808937311E+02 0.  0.
       11    1    3    3    0    0  0.10075200226E+01 -0.26529821564E+02 -0.28548144199E+02  0.38985164692E+02  0.00000000000E+00 0. -1.
      -12    1    3    3    0    0 -0.10075200226E+01  0.26529821564E+02 -0.23194791388E+03  0.23346237659E+03  0.00000000000E+00 0.  1.
</event>
<event>
 6   2  0.6181100E+00  0.9962454E+02  0.7957747E-01  0.1282006E+00
       21   -1    0    0  501  502  0.00000000000E+00  0.00000000000E+00  0.21605865692E+02  0.21605865692E+02  0.00000000000E+00 0. -1.
        3   -1    0    0  502    0  0.00000000000E+00  0.00000000000E+00 -0.34185907143E+03  0.34185907143E+03  0.00000000000E+00 0. -1.
      -24    2    1    2    0    0 -0.26018076452E+02  0.45707433718E+02 -0.28011793020E+03  0.29730641430E+03  0.84610515677E+02 0.  0.
       11    1    3    3    0    0 -0.34067044025E+02  0.39104982128E+02 -0.28199805738E+03  0.28672751435E+03  0.00000000000E+00 0. -1.
      -12    1    3    3    0    0  0.80489675731E+01  0.66024515900E+01  0.18801271800E+01  0.10578899952E+02  0.00000000000E+00 0.  1.
        4    1    1    2  501    0  0.26018076452E+02 -0.45707433718E+02 -0.40135275529E+02  0.66158522816E+02  0.00000000000E+00 0. -1.
</event>
<event>
 5   1  0.6181100E+00  0.8324603E+02  0.7957747E-01  0.1319066E+00
       -4   -1    0    0    0  501  0.00000000000E+00  0.00000000000E+00  0.19901939874E+03  0.19901939874E+03  0.00000000000E+00 0.  1.
        3   -1    0    0  501    0  0.00000000000E+00  0.00000000000E+00 -0.87050582093E+01  0.87050582093E+01  0.00000000000E+00 0. -1.
      -24    2    1    2    0    0  0.00000000000E+00  0.00000000000E+00  0.19031434053E+03  0.20772445695E+03  0.83246031756E+02 0.  0.
       11    1    3    3    0    0  0.28137365625E+01  0.20168275667E+02  0.45737577314E+01  0.20870929941E+02  0.00000000000E+00 0. -1.
      -12    1    3    3    0    0 -0.28137365625E+01 -0.20168275667E+02  0.18574058280E+03  0.18685352701E+03  0.00000000000E+00 0.  1.
</event>
<event>
 5   1  0.6181100E+00  0.8119463E+02  0.7957747E-01  0.1324385E+00
        1   -1    0    0  501    0  0.00000000000E+00  0.00000000000E+00  0.12165634199E+02  0.12165634199E+02  0.00000000000E+00 0. -1.
       -2   -1    0    0    0  501  0.00000000000E+00  0.00000000000E+00 -0.13547521659E+03  0.13547521659E+03  0.00000000000E+00 0.  1.
      -24    2    1    2    0    0  0.00000000000E+00  0.00000000000E+00 -0.12330958239E+03  0.14764085079E+03  0.81194628595E+02 0.  0.
       11    1    3    3    0    0  0.84350998735E+01  0.23716920179E+02 -0.37379335862E+01  0.25448287961E+02  0.00000000000E+00 0. -1.
      -12    1    3    3    0    0 -0.84350998735E+01 -0.23716920179E+02 -0.11957164881E+03  0.12219256283E+03  0.00000000000E+00 0.  1.
</event>
<event>
 5   1  0.6181100E+00  0.8450434E+02  0.7957747E-01  0.1315889E+00
        1   -1    0    0  501    0  0.00000000000E+00  0.00000000000E+00  0.22829545430E+02  0.22829545430E+02  0.00000000000E+00 0. -1.
       -2   -1    0    0    0  501  0.00000000000E+00  0.00000000000E+00 -0.78198929960E+02  0.78198929960E+02  0.00000000000E+00 0.  1.
      -24    2    1    2    0    0  0.00000000000E+00  0.00000000000E+00 -0.55369384530E+02  0.10102847539E+03  0.84504343654E+02 0.  0.
       11    1    3    3    0    0 -0.22695309546E+01 -0.31805849944E+02  0.54575543430E+01  0.32350390428E+02  0.00000000000E+00 0. -1.
      -12    1    3    3    0    0  0.22695309546E+01  0.31805849944E+02 -0.60826938873E+02  0.68678084962E+02  0.00000000000E+00 0.  1.
</event>
<event>
 5   1  0.6181100E+00  0.8184598E+02  0.7957747E-01  0.1322677E+00
        1   -1    0    0  501    0  0.00000000000E+00  0.00000000000E+00  0.42776033685E+01  0.42776033685E+01  0.00000000000E+00 0. -1.
       -2   -1    0    0    0  501  0.00000000000E+00  0.00000000000E+00 -0.39150219026E+03  0.39150219026E+03  0.00000000000E+00 0.  1.
      -24    2    1    2    0    0  0.00000000000E+00  0.00000000000E+00 -0.38722458689E+03  0.39577979363E+03  0.81845979445E+02 0.  0.
       11    1    3    3    0    0 -0.10272051682E+02  0.39530772697E+02 -0.18128935867E+03  0.18583333555E+03  0.00000000000E+00 0. -1.
      -12    1    3    3    0    0  0.10272051682E+02 -0.39530772697E+02 -0.20593522822E+03  0.20994645807E+03  0.00000000000E+00 0.  1.
</event>
<event>
 5   1  0.6181100E+00  0.7996785E+02  0.7957747E-01  0.1327651E+00
       -4   -1    0    0    0  501  0.00000000000E+00  0.00000000000E+00  0.24807891094E+02  0.24807891094E+02  0.00000000000E+00 0.  1.
        3   -1    0    0  501    0  0.00000000000E+00  0.00000000000E+00 -0.64443784645E+02  0.64443784645E+02  0.00000000000E+00 0. -1.
      -24    2    1    2    0    0  0.00000000000E+00  0.00000000000E+00 -0.39635893551E+02  0.89251675739E+02  0.79967853320E+02 0.  0.
       11    1    3    3    0    0 -0.32748495076E+02 -0.22940109582E+02 -0.19770153390E+02  0.44604613242E+02  0.00000000000E+00 0. -1.
      -12    1    3    3    0    0  0.32748495076E+02  0.22940109582E+02 -0.19865740161E+02  0.44647062497E+02  0.00000000000E+00 0.  1.
</event>
<event>
 4   3  0.6181100E+00  0.1857225E+03  0.7957747E-01  0.1168188E+00
       21   -1    0    0  503  502  0.00000000000E+00  0.00000000000E+00  0.13241172459E+02  0.13241172459E+02  0.00000000000E+00 0.  1.
       21   -1    0    0  501  503  0.00000000000E+00  0.00000000000E+00 -0.29452957075E+04  0.29452957075E+04  0.00000000000E+00 0.  1.
        6    1    1    2  501    0 -0.87608743425E+01  0.66985899177E+02 -0.96318751956E+03  0.98092969240E+03  0.17300000000E+03 0.  1.
       -6    1    1    2    0  502  0.87608743425E+01 -0.66985899177E+02 -0.19688670155E+04  0.19776071875E+04  0.17300000000E+03 0.  1.
</event>
<event>
 6   2  0.6181100E+00  0.8296477E+02  0.7957747E-01  0.1319785E+00
       -2   -1    0    0    0  501  0.00000000000E+00  0.00000000000E+00  0.16834542201E+02  0.16834542201E+02  0.00000000000E+00 0.  1.
        1   -1    0    0  502    0  0.00000000000E+00  0.00000000000E+00 -0.28781003920E+03  0.28781003920E+03  0.00000000000E+00 0. -1.
      -24    2    1    2    0    0 -0.73854410992E+01  0.22947465437E+02 -0.91322083579E+02  0.12338101677E+03  0.79385272180E+02 0.  0.
       11    1    3    3    0    0 -0.35259349966E+01  0.51232387512E+02 -0.41778393654E+02  0.66201389140E+02  0.00000000000E+00 0. -1.
      -12    1    3    3    0    0 -0.38595061026E+01 -0.28284922075E+02 -0.49543689925E+02  0.57179627627E+02  0.00000000000E+00 0.  1.
       21    1    1    2  502  501  0.73854410992E+01 -0.22947465437E+02 -0.17965341342E+03  0.18126356464E+03  0.00000000000E+00 0.  1.
</event>
<event>
 5   1  0.6181100E+00  0.7943400E+02  0.7957747E-01  0.1329093E+00
       -2   -1    0    0    0  501  0.00000000000E+00  0.00000000000E+00  0.50950345571E+01  0.50950345571E+01  0.00000000000E+00 0.  1.
        1   -1    0    0  501    0  0.00000000000E+00  0.00000000000E+00 -0.30960338308E+03  0.30960338308E+03  0.00000000000E+00 0. -1.
      -24    2    1    2    0    0  0.00000000000E+00  0.00000000000E+00 -0.30450834853E+03  0.31469841764E+03  0.79433996143E+02 0.  0.
       11    1    3    3    0    0  0.23541706937E+02 -0.31731278033E+02 -0.16827554520E+03  0.17285180092E+03  0.00000000000E+00 0. -1.
      -12    1    3    3    0    0 -0.23541706937E+02  0.31731278033E+02 -0.13623280333E+03  0.14184661672E+03  0.00000000000E+00 0.  1.
</event>
<event>
 5   1  0.6181100E+00  0.8105594E+02  0.7957747E-01  0.1324751E+00
        1   -1    0    0  501    0  0.00000000000E+00  0.00000000000E+00  0.47550306450E+02  0.47550306450E+02  0.00000000000E+00 0. -1.
       -2   -1    0    0    0  501  0.00000000000E+00  0.00000000000E+00 -0.34542704497E+02  0.34542704497E+02  0.00000000000E+00 0.  1.
      -24    2    1    2    0    0  0.00000000000E+00  0.00000000000E+00  0.13007601953E+02  0.82093010947E+02  0.81055935858E+02 0.  0.
       11    1    3    3    0    0  0.32822039343E+02  0.62665645419E+01  0.29731048838E+02  0.44726852816E+02  0.00000000000E+00 0. -1.
      -12    1    3    3    0    0 -0.32822039343E+02 -0.62665645419E+01 -0.16723446885E+02  0.37366158131E+02  0.00000000000E+00 0.  1.
</event>
<event>
 4   3  0.6181100E+00  0.1788567E+03  0.7957747E-01  0.1174494E+00
        2   -1    0    0  502    0  0.00000000000E+00  0.00000000000E+00  0.44311945109E+02  0.44311945109E+02  0.00000000000E+00 0. -1.
       -2   -1    0    0    0  501  0.00000000000E+00  0.00000000000E+00 -0.83165455287E+03  0.83165455287E+03  0.00000000000E+00 0.  1.
        6    1    1    2  502    0 -0.19232355989E+02  0.41119831575E+02 -0.55276600729E+03  0.58098191270E+03  0.17300000000E+03 0.  1.
       -6    1    1    2    0  501  0.19232355989E+02 -0.41119831575E+02 -0.23457660047E+03  0.29498458528E+03  0.17300000000E+03 0. -1.
</event>
<event>
 5   1  0.6181100E+00  0.6665117E+02  0.7957747E-01  0.1368019E+00
        1   -1    0    0  501    0  0.00000000000E+00  0.00000000000E+00  0.38725671251E+02  0.38725671251E+02  0.00000000000E+00 0. -1.
       -2   -1    0    0    0  501  0.00000000000E+00  0.00000000000E+00 -0.28678514852E+02  0.28678514852E+02  0.00000000000E+00 0.  1.
      -24    2    1    2    0    0  0.00000000000E+00  0.00000000000E+00  0.10047156399E+02  0.67404186103E+02  0.66651173677E+02 0.  0.
       11    1    3    3    0    0 -0.30025368500E+02  0.30456284557E+01  0.19318197895E+02  0.35832825400E+02  0.00000000000E+00 0. -1.
      -12    1    3    3    0    0  0.30025368500E+02 -0.30456284557E+01 -0.92710414960E+01  0.31571360703E+02  0.00000000000E+00 0.  1.
</event>
<event>
 4   3  0.6181100E+00  0.1747461E+03  0.7957747E-01  0.1178421E+00
       21   -1    0    0  503  502  0.00000000000E+00  0.00000000000E+00  0.57362167377E+03  0.57362167377E+03  0.00000000000E+00 0. -1.
       21   -1    0    0  501  503  0.00000000000E+00  0.00000000000E+00 -0.72095563851E+02  0.72095563851E+02  0.00000000000E+00 0. -1.
        6    1    1    2  501    0  0.15514982530E+02 -0.19144029354E+02  0.85625324092E+02  0.19459677456E+03  0.17300000000E+03 0. -1.
       -6    1    1    2    0  502 -0.15514982530E+02  0.19144029354E+02  0.41590078583E+03  0.45112046306E+03  0.17300000000E+03 0. -1.
</event>
<event>
 5   1  0.6181100E+00  0.8037939E+02  0.7957747E-01  0.1326548E+00
       -2   -1    0    0    0  501  0.00000000000E+00  0.00000000000E+00  0.94775930551E+01  0.94775930551E+01  0.00000000000E+00 0.  1.
        1   -1    0    0  501    0  0.00000000000E+00  0.00000000000E+00 -0.17042422937E+03  0.17042422937E+03  0.00000000000E+00 0. -1.
      -24    2    1    2    0    0  0.00000000000E+00  0.00000000000E+00 -0.16094663632E+03  0.17990182243E+03  0.80379387724E+02 0.  0.
       11    1    3    3    0    0  0.38633142040E+02 -0.11076631583E+02 -0.80490882164E+02  0.89966624604E+02  0.00000000000E+00 0. -1.
      -12    1    3    3    0    0 -0.38633142040E+02  0.11076631583E+02 -0.80455754153E+02  0.89935197823E+02  0.00000000000E+00 0.  1.
</event>
<event>
 5   1  0.6181100E+00  0.7974560E+02  0.7957747E-01  0.1328250E+00
        1   -1    0    0  501    0  0.00000000000E+00  0.00000000000E+00  0.10350798238E+02  0.10350798238E+02  0.00000000000E+00 0. -1.
       -2   -1    0    0    0  501  0.00000000000E+00  0.00000000000E+00 -0.15359589819E+03  0.15359589819E+03  0.00000000000E+00 0.  1.
      -24    2    1    2    0    0  0.00000000000E+00  0.00000000000E+00 -0.14324509995E+03  0.16394669643E+03  0.79745599311E+02 0.  0.
       11    1    3    3    0    0 -0.67514302676E+01 -0.36744616331E+02 -0.42980821998E+02  0.56948219460E+02  0.00000000000E+00 0. -1.
      -12    1    3    3    0    0  0.67514302676E+01  0.36744616331E+02 -0.10026427795E+03  0.10699847697E+03  0.00000000000E+00 0.  1.
</event>
<event>
 4   1  0.6181100E+00  0.1305355E+03  0.7957747E-01  0.1230010E+00
        1   -1    0    0  501    0  0.00000000000E+00  0.00000000000E+00  0.10548709237E+03  0.10548709237E+03  0.00000000000E+00 0. -1.
       -2   -1    0    0    0  501  0.00000000000E+00  0.00000000000E+00 -0.40382943199E+02  0.40382943199E+02  0.00000000000E+00 0.  1.
       11    1    1    2    0    0  0.47363627607E+02  0.17571390255E+02  0.78732455924E+02  0.93546066681E+02  0.00000000000E+00 0. -1.
      -12    1    1    2    0    0 -0.47363627607E+02 -0.17571390255E+02 -0.13628306751E+02  0.52323968891E+02  0.00000000000E+00 0.  1.
</event>
<event>
 5   1  0.6181100E+00  0.8034115E+02  0.7957747E-01  0.1326650E+00
        3   -1    0    0  501    0  0.00000000000E+00  0.00000000000E+00  0.59684492220E+02  0.59684492220E+02  0.00000000000E+00 0. -1.
       -4   -1    0    0    0  501  0.00000000000E+00  0.00000000000E+00 -0.27036754678E+02  0.27036754678E+02  0.00000000000E+00 0.  1.
      -24    2    1    2    0    0  0.00000000000E+00  0.00000000000E+00  0.32647737542E+02  0.86721246897E+02  0.80341146972E+02 0.  0.
       11    1    3    3    0    0 -0.61883690449E+01  0.34461924490E+02 -0.49313750130E+01  0.35358713360E+02  0.00000000000E+00 0. -1.
      -12    1    3    3    0    0  0.61883690449E+01 -0.34461924490E+02  0.37579112555E+02  0.51362533537E+02  0.00000000000E+00 0.  1.
</event>
<event>
 5   1  0.6181100E+00  0.8012153E+02  0.7957747E-01  0.1327238E+00
       -2   -1    0    0    0  501  0.00000000000E+00  0.00000000000E+00  0.22418818500E+02  0.22418818500E+02  0.00000000000E+00 0.  1.
        1   -1    0    0  501    0  0.00000000000E+00  0.00000000000E+00 -0.71585614690E+02  0.71585614690E+02  0.00000000000E+00 0. -1.
      -24    2    1    2    0    0  0.00000000000E+00  0.00000000000E+00 -0.49166796190E+02  0.94004433191E+02  0.80121530264E+02 0.  0.
       11    1    3    3    0    0  0.22776232846E+02  0.95591713730E+01 -0.61587663482E+02  0.66356422697E+02  0.00000000000E+00 0. -1.
      -12    1    3    3    0    0 -0.22776232846E+02 -0.95591713730E+01  0.12420867292E+02  0.27648010494E+02  0.00000000000E+00 0.  1.
</event>
<event>
 4   3  0.6181100E+00  0.2996372E+03  0.7957747E-01  0.1093625E+00
       21   -1    0    0  503  502  0.00000000000E+00  0.00000000000E+00  0.51399327026E+03  0.51399327026E+03  0.00000000000E+00 0. -1.
       21   -1    0    0  501  503  0.00000000000E+00  0.00000000000E+00 -0.27881558918E+03  0.27881558918E+03  0.00000000000E+00 0.  1.
        6    1    1    2  501    0  0.24414978932E+03 -0.15630409304E+02 -0.12467429365E+03  0.32453984164E+03  0.17300000000E+03 0.  1.
       -6    1    1    2    0  502 -0.24414978932E+03  0.15630409304E+02  0.35985197472E+03  0.46826901780E+03  0.17300000000E+03 0. -1.
</event>
<event>
 5   1  0.6181100E+00  0.8223617E+02  0.7957747E-01  0.1321663E+00
        1   -1    0    0  501    0  0.00000000000E+00  0.00000000000E+00  0.45268572049E+02  0.45268572049E+02  0.00000000000E+00 0. -1.
       -2   -1    0    0    0  501  0.00000000000E+00  0.00000000000E+00 -0.37348139176E+02  0.37348139176E+02  0.00000000000E+00 0.  1.
      -24    2    1    2    0    0  0.00000000000E+00  0.00000000000E+00  0.79204328730E+01  0.82616711225E+02  0.82236170368E+02 0.  0.
       11    1    3    3    0    0 -0.11848109254E+02  0.33440472794E+02  0.24842310521E+02  0.43310314078E+02  0.00000000000E+00 0. -1.
      -12    1    3    3    0    0  0.11848109254E+02 -0.33440472794E+02 -0.16921877648E+02  0.39306397147E+02  0.00000000000E+00 0.  1.
</event>
<event>
 5   1  0.6181100E+00  0.8083034E+02  0.7957747E-01  0.1325348E+00
       -2   -1    0    0    0  501  0.00000000000E+00  0.00000000000E+00  0.46388405989E+02  0.46388405989E+02  0.00000000000E+00 0.  1.
        1   -1    0    0  501    0  0.00000000000E+00  0.00000000000E+00 -0.35211081191E+02  0.35211081191E+02  0.00000000000E+00 0. -1.
      -24    2    1    2    0    0  0.00000000000E+00  0.00000000000E+00  0.11177324798E+02  0.81599487179E+02  0.80830339096E+02 0.  0.
       11    1    3    3    0    0  0.19828122274E+02 -0.54354568446E+01 -0.29537363970E+02  0.35988254950E+02  0.00000000000E+00 0. -1.
      -12    1    3    3    0    0 -0.19828122274E+02  0.54354568446E+01  0.40714688768E+02  0.45611232230E+02  0.00000000000E+00 0.  1.
</event>
<event>
 4   3  0.6181100E+00  0.2458907E+03  0.7957747E-01  0.1123256E+00
       21   -1    0    0  501  502  0.00000000000E+00  0.00000000000E+00  0.26578325784E+03  0.26578325784E+03  0.00000000000E+00 0. -1.
       21   -1    0    0  502  503  0.00000000000E+00  0.00000000000E+00 -0.90405142772E+03  0.90405142772E+03  0.00000000000E+00 0.  1.
        6    1    1    2  501    0 -0.16559399142E+03  0.55783903913E+02  0.18686826842E+03  0.30883970547E+03  0.17300000000E+03 0. -1.
       -6    1    1    2    0  503  0.16559399142E+03 -0.55783903913E+02 -0.82513643831E+03  0.86099498010E+03  0.17300000000E+03 0.  1.
</event>
<event>
 5   1  0.6181100E+00  0.8117233E+02  0.7957747E-01  0.1324444E+00
        3   -1    0    0  501    0  0.00000000000E+00  0.00000000000E+00  0.32645760443E+03  0.32645760443E+03  0.00000000000E+00 0. -1.
       -4   -1    0    0    0  501  0.00000000000E+00  0.00000000000E+00 -0.50457904931E+01  0.50457904931E+01  0.00000000000E+00 0.  1.
      -24    2    1    2    0    0  0.00000000000E+00  0.00000000000E+00  0.32141181393E+03  0.33150339492E+03  0.81172327226E+02 0.  0.
       11    1    3    3    0    0  0.30430952192E+02 -0.26755587796E+02  0.15127530981E+03  0.15660818525E+03  0.00000000000E+00 0. -1.
      -12    1    3    3    0    0 -0.30430952192E+02  0.26755587796E+02  0.17013650413E+03  0.17489520967E+03  0.00000000000E+00 0.  1.
</event>
<event>
 5   1  0.6181100E+00  0.7955730E+02  0.7957747E-01  0.1328759E+00
        3   -1    0    0  501    0  0.00000000000E+00  0.00000000000E+00  0.71715805724E+01  0.71715805724E+01  0.00000000000E+00 0. -1.
       -4   -1    0    0    0  501  0.00000000000E+00  0.00000000000E+00 -0.22064049658E+03  0.22064049658E+03  0.00000000000E+00 0.  1.
      -24    2    1    2    0    0  0.00000000000E+00  0.00000000000E+00 -0.21346891601E+03  0.22781207715E+03  0.79557302588E+02 0.  0.
       11    1    3    3    0    0  0.97406343514E+01  0.23197456357E+01  0.35038416408E+01  0.10608396845E+02  0.00000000000E+00 0. -1.
      -12    1    3    3    0    0 -0.97406343514E+01 -0.23197456357E+01 -0.21697275765E+03  0.21720368031E+03  0.00000000000E+00 0.  1.
</event>
<event>
 5   1  0.6181100E+00  0.8361462E+02  0.7957747E-01  0.1318129E+00
        3   -1    0    0  501    0  0.00000000000E+00  0.00000000000E+00  0.14465873444E+01  0.14465873444E+01  0.00000000000E+00 0. -1.
       -4   -1    0    0    0  501  0.00000000000E+00  0.00000000000E+00 -0.12082581638E+04  0.12082581638E+04  0.00000000000E+00 0.  1.
      -24    2    1    2    0    0  0.00000000000E+00  0.00000000000E+00 -0.12068115764E+04  0.12097047511E+04  0.83614615194E+02 0.  0.
       11    1    3    3    0    0 -0.47214340220E+01  0.13653332951E+02 -0.35812784738E+02  0.38616848533E+02  0.00000000000E+00 0. -1.
      -12    1    3    3    0    0  0.47214340220E+01 -0.13653332951E+02 -0.11709987917E+04  0.11710879026E+04  0.00000000000E+00 0.  1.
</event>
<event>
 5   1  0.6181100E+00  0.7850309E+02  0.7957747E-01  0.1331639E+00
       -2   -1    0    0    0  501  0.00000000000E+00  0.00000000000E+00  0.98176977324E+02  0.98176977324E+02  0.00000000000E+00 0.  1.
        1   -1    0    0  501    0  0.00000000000E+00  0.00000000000E+00 -0.15692921744E+02  0.15692921744E+02  0.00000000000E+00 0. -1.
      -24    2    1    2    0    0  0.00000000000E+00  0.00000000000E+00  0.82484055580E+02  0.11386989907E+03  0.78503085855E+02 0.  0.
       11    1    3    3    0    0  0.32113585998E+01 -0.26589833348E+02 -0.37919772023E+00  0.26785739722E+02  0.00000000000E+00 0. -1.
      -12    1    3    3    0    0 -0.32113585998E+01  0.26589833348E+02  0.82863253301E+02  0.87084159346E+02  0.00000000000E+00 0.  1.
</event>
<event>
 5   1  0.6181100E+00  0.7917010E+02  0.7957747E-01  0.1329811E+00
       -2   -1    0    0    0  501  0.00000000000E+00  0.00000000000E+00  0.93942403201E+02  0.93942403201E+02  0.00000000000E+00 0.  1.
        1   -1    0    0  501    0  0.00000000000E+00  0.00000000000E+00 -0.16680179683E+02  0.16680179683E+02  0.00000000000E+00 0. -1.
      -24    2    1    2    0    0  0.00000000000E+00  0.00000000000E+00  0.77262223518E+02  0.11062258288E+03  0.79170099538E+02 0.  0.
       11    1    3    3    0    0 -0.45591338000E+01  0.37172840244E+02  0.20717035203E+02  0.42799547900E+02  0.00000000000E+00 0. -1.
      -12    1    3    3    0    0  0.45591338000E+01 -0.37172840244E+02  0.56545188315E+02  0.67823034984E+02  0.00000000000E+00 0.  1.
</event>
<event>
 5   1  0.6181100E+00  0.8087521E+02  0.7957747E-01  0.1325229E+00
       -2   -1    0    0    0  501  0.00000000000E+00  0.00000000000E+00  0.37090369072E+03  0.37090369072E+03  0.00000000000E+00 0.  1.
        1   -1    0    0  501    0  0.00000000000E+00  0.00000000000E+00 -0.44086913796E+01  0.44086913796E+01  0.00000000000E+00 0. -1.
      -24    2    1    2    0    0  0.00000000000E+00  0.00000000000E+00  0.36649499934E+03  0.37531238209E+03  0.80875210143E+02 0.  0.
       11    1    3    3    0    0  0.13005736156E+02 -0.16412303221E+02  0.22713227541E+02  0.30893422849E+02  0.00000000000E+00 0. -1.
      -12    1    3    3    0    0 -0.13005736156E+02  0.16412303221E+02  0.34378177179E+03  0.34441895925E+03  0.00000000000E+00 0.  1.
</event>
<event>
 4   3  0.6181100E+00  0.4240673E+03  0.7957747E-01  0.1045183E+00
       21   -1    0    0  503  502  0.00000000000E+00  0.00000000000E+00  0.27616138540E+04  0.27616138540E+04  0.00000000000E+00 0.  1.
       21   -1    0    0  501  503  0.00000000000E+00  0.00000000000E+00 -0.76535393662E+02  0.76535393662E+02  0.00000000000E+00 0. -1.
        6    1    1    2  501    0 -0.18690080052E+03  0.33907546043E+03  0.79446210231E+03  0.90055711041E+03  0.17300000000E+03 0. -1.
       -6    1    1    2    0  502  0.18690080052E+03 -0.33907546043E+03  0.18906163580E+04  0.19375921372E+04  0.17300000000E+03 0.  1.
</event>
<event>
 6   2  0.6181100E+00  0.8367587E+02  0.7957747E-01  0.1317974E+00
       -2   -1    0    0    0  501  0.00000000000E+00  0.00000000000E+00  0.88892730647E+03  0.88892730647E+03  0.00000000000E+00 0.  1.
        1   -1    0    0  502    0  0.00000000000E+00  0.00000000000E+00 -0.23394812052E+02  0.23394812052E+02  0.00000000000E+00 0. -1.
      -24    2    1    2    0    0  0.83567817751E+01 -0.25763897402E+02  0.52379371485E+02  0.98718028348E+02  0.79170931236E+02 0.  0.
       11    1    3    3    0    0 -0.96105717277E+01  0.51669973396E+01 -0.17265239233E+02  0.20424236491E+02  0.00000000000E+00 0. -1.
      -12    1    3    3    0    0  0.17967353503E+02 -0.30930894741E+02  0.69644610718E+02  0.78293791857E+02  0.00000000000E+00 0.  1.
       21    1    1    2  502  501 -0.83567817751E+01  0.25763897402E+02  0.81315312293E+03  0.81360409017E+03  0.00000000000E+00 0.  1.
</event>
<event>
 5   1  0.6181100E+00  0.7603553E+02  0.7957747E-01  0.1338586E+00
        1   -1    0    0  501    0  0.00000000000E+00  0.00000000000E+00  0.86710769920E+01  0.86710769920E+01  0.00000000000E+00 0. -1.
       -2   -1    0    0    0  501  0.00000000000E+00  0.00000000000E+00 -0.16668636575E+03  0.16668636575E+03  0.00000000000E+00 0.  1.
      -24    2    1    2    0    0  0.00000000000E+00  0.00000000000E+00 -0.15801528876E+03  0.17535744274E+03  0.76035526195E+02 0.  0.
       11    1    3    3    0    0 -0.16409065159E+02  0.12728523324E+02 -0.55658567376E+01  0.21500034572E+02  0.00000000000E+00 0. -1.
      -12    1    3    3    0    0  0.16409065159E+02 -0.12728523324E+02 -0.15244943202E+03  0.15385740817E+03  0.00000000000E+00 0.  1.
</event>
<event>
 5   1  0.6181100E+00  0.8045092E+02  0.7957747E-01  0.1326357E+00
        1   -1    0    0  501    0  0.00000000000E+00  0.00000000000E+00  0.39306764466E+02  0.39306764466E+02  0.00000000000E+00 0. -1.
       -2   -1    0    0    0  501  0.00000000000E+00  0.00000000000E+00 -0.41165622827E+02  0.41165622827E+02  0.00000000000E+00 0.  1.
      -24    2    1    2    0    0  0.00000000000E+00  0.00000000000E+00 -0.18588583602E+01  0.80472387293E+02  0.80450915236E+02 0.  0.
       11    1    3    3    0    0  0.56910207411E+01  0.87022668470E+01  0.37939277950E+02  0.39338352491E+02  0.00000000000E+00 0. -1.
      -12    1    3    3    0    0 -0.56910207411E+01 -0.87022668470E+01 -0.39798136310E+02  0.41134034802E+02  0.00000000000E+00 0.  1.
</event>
<event>
 5   1  0.6181100E+00  0.8001327E+02  0.7957747E-01  0.1327529E+00
        1   -1    0    0  501    0  0.00000000000E+00  0.00000000000E+00  0.56022890439E+02  0.56022890439E+02  0.00000000000E+00 0. -1.
       -2   -1    0    0    0  501  0.00000000000E+00  0.00000000000E+00 -0.28569229897E+02  0.28569229897E+02  0.00000000000E+00 0.  1.
      -24    2    1    2    0    0  0.00000000000E+00  0.00000000000E+00  0.27453660542E+02  0.84592120336E+02  0.80013269811E+02 0.  0.
       11    1    3    3    0    0  0.30293927141E+02  0.24341371463E+02  0.23773619184E+02  0.45556660934E+02  0.00000000000E+00 0. -1.
      -12    1    3    3    0    0 -0.30293927141E+02 -0.24341371463E+02  0.36800413574E+01  0.39035459402E+02  0.00000000000E+00 0.  1.
</event>
<event>
 5   1  0.6181100E+00  0.8228997E+02  0.7957747E-01  0.1321523E+00
       -2   -1    0    0    0  501  0.00000000000E+00  0.00000000000E+00  0.65167952235E+03  0.65167952235E+03  0.00000000000E+00 0.  1.
        1   -1    0    0  501    0  0.00000000000E+00  0.00000000000E+00 -0.25977639998E+01  0.25977639998E+01  0.00000000000E+00 0. -1.
      -24    2    1    2    0    0  0.00000000000E+00  0.00000000000E+00  0.64908175835E+03  0.65427728635E+03  0.82289965430E+02 0.  0.
       11    1    3    3    0    0  0.83142502017E+01  0.37621102591E+02  0.20975174145E+03  0.21326103056E+03  0.00000000000E+00 0. -1.
      -12    1    3    3    0    0 -0.83142502017E+01 -0.37621102591E+02  0.43933001690E+03  0.44101625579E+03  0.00000000000E+00 0.  1.
</event>
<event>
 5   1  0.6181100E+00  0.8070487E+02  0.7957747E-01  0.1325681E+00
        1   -1    0    0  501    0  0.00000000000E+00  0.00000000000E+00  0.34053912936E+02  0.34053912936E+02  0.00000000000E+00 0. -1.
       -2   -1    0    0    0  501  0.00000000000E+00  0.00000000000E+00 -0.47815919322E+02  0.47815919322E+02  0.00000000000E+00 0.  1.
      -24    2    1    2    0    0  0.00000000000E+00  0.00000000000E+00 -0.13762006386E+02  0.81869832258E+02  0.80704873547E+02 0.  0.
       11    1    3    3    0    0  0.91463890816E+01 -0.12139322476E+02  0.31039046861E+02  0.34560700419E+02  0.00000000000E+00 0. -1.
      -12    1    3    3    0    0 -0.91463890816E+01  0.12139322476E+02 -0.44801053247E+02  0.47309131840E+02  0.00000000000E+00 0.  1.
</event>
<event>
 6   2  0.6181100E+00  0.8518065E+02  0.7957747E-01  0.1314207E+00
        1   -1    0    0  502    0  0.00000000000E+00  0.00000000000E+00  0.23518454847E+03  0.23518454847E+03  0.00000000000E+00 0. -1.
       21   -1    0    0  501  502  0.00000000000E+00  0.00000000000E+00 -0.14394573499E+02  0.14394573499E+02  0.00000000000E+00 0.  1.
      -24    2    1    2    0    0 -0.11843861525E+02 -0.24504980044E+02  0.13548328389E+03  0.16003582158E+03  0.80715381868E+02 0.  0.
       11    1    3    3    0    0 -0.69278403614E+01 -0.28172368349E+02  0.14545983217E+03  0.14832477907E+03  0.00000000000E+00 0. -1.
      -12    1    3    3    0    0 -0.49160211636E+01  0.36673883054E+01 -0.99765482778E+01  0.11711042507E+02  0.00000000000E+00 0.  1.
        2    1    1    2  501    0  0.11843861525E+02  0.24504980044E+02  0.85306691074E+02  0.89543300390E+02  0.00000000000E+00 0. -1.
</event>
<event>
 5   1  0.6181100E+00  0.7859447E+02  0.7957747E-01  0.1331388E+00
        1   -1    0    0  501    0  0.00000000000E+00  0.00000000000E+00  0.10343255106E+02  0.10343255106E+02  0.00000000000E+00 0. -1.
       -2   -1    0    0    0  501  0.00000000000E+00  0.00000000000E+00 -0.14930239609E+03  0.14930239609E+03  0.00000000000E+00 0.  1.
      -24    2    1    2    0    0  0.00000000000E+00  0.00000000000E+00 -0.13895914098E+03  0.15964565120E+03  0.78594472344E+02 0.  0.
       11    1    3    3    0    0  0.27673666056E+02  0.13045056641E+02 -0.19382493433E+02  0.36217210652E+02  0.00000000000E+00 0. -1.
      -12    1    3    3    0    0 -0.27673666056E+02 -0.13045056641E+02 -0.11957664755E+03  0.12342844054E+03  0.00000000000E+00 0.  1.
</event>
<event>
 5   1  0.6181100E+00  0.8045834E+02  0.7957747E-01  0.1326337E+00
        1   -1    0    0  501    0  0.00000000000E+00  0.00000000000E+00  0.59353442939E+02  0.59353442939E+02  0.00000000000E+00 0. -1.
       -2   -1    0    0    0  501  0.00000000000E+00  0.00000000000E+00 -0.27266932261E+02  0.27266932261E+02  0.00000000000E+00 0.  1.
      -24    2    1    2    0    0  0.00000000000E+00  0.00000000000E+00  0.32086510678E+02  0.86620375200E+02  0.80458344703E+02 0.  0.
       11    1    3    3    0    0  0.14412165572E+02 -0.14979568831E+02  0.53123628186E+02  0.57045752432E+02  0.00000000000E+00 0. -1.
      -12    1    3    3    0    0 -0.14412165572E+02  0.14979568831E+02 -0.21037117508E+02  0.29574622768E+02  0.00000000000E+00 0.  1.
</event>
<event>
 5   1  0.6181100E+00  0.8921422E+02  0.7957747E-01  0.1304528E+00
       -4   -1    0    0    0  501  0.00000000000E+00  0.00000000000E+00  0.87568037677E+02  0.87568037677E+02  0.00000000000E+00 0.  1.
        3   -1    0    0  501    0  0.00000000000E+00  0.00000000000E+00 -0.22722835155E+02  0.22722835155E+02  0.00000000000E+00 0. -1.
      -24    2    1    2    0    0  0.00000000000E+00  0.00000000000E+00  0.64845202521E+02  0.11029087283E+03  0.89214216020E+02 0.  0.
       11    1    3    3    0    0  0.22212199079E+02 -0.27512477959E+02 -0.11950609410E+01  0.35380028293E+02  0.00000000000E+00 0. -1.
      -12    1    3    3    0    0 -0.22212199079E+02  0.27512477959E+02  0.66040263462E+02  0.74910844539E+02  0.00000000000E+00 0.  1.
</event>
<event>
 4   3  0.6181100E+00  0.2765426E+03  0.7957747E-01  0.1105457E+00
       21   -1    0    0  501  502  0.00000000000E+00  0.00000000000E+00  0.10959243919E+03  0.10959243919E+03  0.00000000000E+00 0. -1.
       21   -1    0    0  502  503  0.00000000000E+00  0.00000000000E+00 -0.91922511618E+03  0.91922511618E+03  0.00000000000E+00 0. -1.
        6    1    1    2  501    0  0.99414980544E+02  0.19147702455E+03 -0.15235707262E+03  0.31573480465E+03  0.17300000000E+03 0. -1.
       -6    1    1    2    0  503 -0.99414980544E+02 -0.19147702455E+03 -0.65727560437E+03  0.71308275073E+03  0.17300000000E+03 0. -1.
</event>
<event>
 6   2  0.6181100E+00  0.8642501E+02  0.7957747E-01  0.1311157E+00
        1   -1    0    0  502    0  0.00000000000E+00  0.00000000000E+00  0.19473857131E+03  0.19473857131E+03  0.00000000000E+00 0. -1.
       21   -1    0    0  501  502  0.00000000000E+00  0.00000000000E+00 -0.23474877472E+02  0.23474877472E+02  0.00000000000E+00 0.  1.
      -24    2    1    2    0    0  0.10813578911E+02  0.28597849137E+02  0.16605459105E+03  0.18719885196E+03  0.80836331576E+02 0.  0.
       11    1    3    3    0    0  0.21638999599E+01 -0.24086471063E+02  0.19006732760E+02  0.30758680751E+02  0.00000000000E+00 0. -1.
      -12    1    3    3    0    0  0.86496789512E+01  0.52684320200E+02  0.14704785829E+03  0.15644017121E+03  0.00000000000E+00 0.  1.
        2    1    1    2  501    0 -0.10813578911E+02 -0.28597849137E+02  0.52091027893E+01  0.31014596822E+02  0.00000000000E+00 0. -1.
</event>
<event>
 5   1  0.6181100E+00  0.8093577E+02  0.7957747E-01  0.1325069E+00
       -2   -1    0    0    0  501  0.00000000000E+00  0.00000000000E+00  0.15580448568E+03  0.15580448568E+03  0.00000000000E+00 0.  1.
        1   -1    0    0  501    0  0.00000000000E+00  0.00000000000E+00 -0.10510928159E+02  0.10510928159E+02  0.00000000000E+00 0. -1.
      -24    2    1    2    0    0  0.00000000000E+00  0.00000000000E+00  0.14529355752E+03  0.16631541384E+03  0.80935770974E+02 0.  0.
       11    1    3    3    0    0  0.84543056825E+01  0.14299522640E+02 -0.31817120083E+01  0.16913749543E+02  0.00000000000E+00 0. -1.
      -12    1    3    3    0    0 -0.84543056825E+01 -0.14299522640E+02  0.14847526953E+03  0.14940166430E+03  0.00000000000E+00 0.  1.
</event>
<event>
 5   1  0.6181100E+00  0.7925200E+02  0.7957747E-01  0.1329588E+00
        1   -1    0    0  501    0  0.00000000000E+00  0.00000000000E+00  0.12116807316E+02  0.12116807316E+02  0.00000000000E+00 0. -1.
       -2   -1    0    0    0  501  0.00000000000E+00  0.00000000000E+00 -0.12959022129E+03  0.12959022129E+03  0.00000000000E+00 0.  1.
      -24    2    1    2    0    0  0.00000000000E+00  0.00000000000E+00 -0.11747341398E+03  0.14170702861E+03  0.79251996605E+02 0.  0.
       11    1    3    3    0    0 -0.62541539382E+00  0.39617893825E+02 -0.59632674748E+02  0.71596260748E+02  0.00000000000E+00 0. -1.
      -12    1    3    3    0    0  0.62541539382E+00 -0.39617893825E+02 -0.57840739230E+02  0.70110767862E+02  0.00000000000E+00 0.  1.
</event>
<event>
 5   1  0.6181100E+00  0.7156941E+02  0.7957747E-01  0.1351952E+00
       -2   -1    0    0    0  501  0.00000000000E+00  0.00000000000E+00  0.55290828884E+01  0.55290828884E+01  0.00000000000E+00 0.  1.
        1   -1    0    0  501    0  0.00000000000E+00  0.00000000000E+00 -0.23160175293E+03  0.23160175293E+03  0.00000000000E+00 0. -1.
      -24    2    1    2    0    0  0.00000000000E+00  0.00000000000E+00 -0.22607267005E+03  0.23713083582E+03  0.71569414950E+02 0.  0.
       11    1    3    3    0    0 -0.41716732815E+01  0.32875366612E+02 -0.15777846608E+03  0.16122108096E+03  0.00000000000E+00 0. -1.
      -12    1    3    3    0    0  0.41716732815E+01 -0.32875366612E+02 -0.68294203970E+02  0.75909754865E+02  0.00000000000E+00 0.  1.
</event>
<event>
 5   1  0.6181100E+00  0.7951119E+02  0.7957747E-01  0.1328884E+00
       -2   -1    0    0    0  501  0.00000000000E+00  0.00000000000E+00  0.11448593972E+03  0.11448593972E+03  0.00000000000E+00 0.  1.
        1   -1    0    0  501    0  0.00000000000E+00  0.00000000000E+00 -0.13805252629E+02  0.13805252629E+02  0.00000000000E+00 0. -1.
      -24    2    1    2    0    0  0.00000000000E+00  0.00000000000E+00  0.10068068710E+03  0.12829119235E+03  0.79511189663E+02 0.  0.
       11    1    3    3    0    0 -0.16086159994E+02  0.24569730767E+02  0.71036657667E+01  0.30214206603E+02  0.00000000000E+00 0. -1.
      -12    1    3    3    0    0  0.16086159994E+02 -0.24569730767E+02  0.93577021329E+02  0.98076985752E+02  0.00000000000E+00 0.  1.
</event>
<event>
 5   1  0.6181100E+00  0.7761982E+02  0.7957747E-01  0.1334092E+00
       -2   -1    0    0    0  501  0.00000000000E+00  0.00000000000E+00  0.41063540269E+02  0.41063540269E+02  0.00000000000E+00 0.  1.
        1   -1    0    0  501    0  0.00000000000E+00  0.00000000000E+00 -0.36679964519E+02  0.36679964519E+02  0.00000000000E+00 0. -1.
      -24    2    1    2    0    0  0.00000000000E+00  0.00000000000E+00  0.43835757493E+01  0.77743504788E+02  0.77619822213E+02 0.  0.
       11    1    3    3    0    0 -0.19661988914E+02  0.22360587319E+02 -0.22740034238E+02  0.37465968964E+02  0.00000000000E+00 0. -1.
      -12    1    3    3    0    0  0.19661988914E+02 -0.22360587319E+02  0.27123609987E+02  0.40277535824E+02  0.00000000000E+00 0.  1.
</event>
<event>
 5   1  0.6181100E+00  0.7904522E+02  0.7957747E-01  0.1330152E+00
       -2   -1    0    0    0  501  0.00000000000E+00  0.00000000000E+00  0.20899963254E+02  0.20899963254E+02  0.00000000000E+00 0.  1.
        1   -1    0    0  501    0  0.00000000000E+00  0.00000000000E+00 -0.74738730824E+02  0.74738730824E+02  0.00000000000E+00 0. -1.
      -24    2    1    2    0    0  0.00000000000E+00  0.00000000000E+00 -0.53838767570E+02  0.95638694078E+02  0.79045220674E+02 0.  0.
       11    1    3    3    0    0 -0.33638570344E+02  0.18909963857E+02 -0.16589115568E+02  0.42004034368E+02  0.00000000000E+00 0. -1.
      -12    1    3    3    0    0  0.33638570344E+02 -0.18909963857E+02 -0.37249652002E+02  0.53634659709E+02  0.00000000000E+00 0.  1.
</event>
<event>
 5   1  0.6181100E+00  0.8006552E+02  0.7957747E-01  0.1327389E+00
        1   -1    0    0  501    0  0.00000000000E+00  0.00000000000E+00  0.26649424959E+02  0.26649424959E+02  0.00000000000E+00 0. -1.
       -2   -1    0    0    0  501  0.00000000000E+00  0.00000000000E+00 -0.60137207126E+02  0.60137207126E+02  0.00000000000E+00 0.  1.
      -24    2    1    2    0    0  0.00000000000E+00  0.00000000000E+00 -0.33487782167E+02  0.86786632084E+02  0.80065522880E+02 0.  0.
       11    1    3    3    0    0  0.34764806969E+02  0.10780622815E+02  0.13228551131E+01  0.36422020503E+02  0.00000000000E+00 0. -1.
      -12    1    3    3    0    0 -0.34764806969E+02 -0.10780622815E+02 -0.34810637280E+02  0.50364611581E+02  0.00000000000E+00 0.  1.
</event>
<event>
 5   1  0.6181100E+00  0.8031404E+02  0.7957747E-01  0.1326723E+00
       -4   -1    0    0    0  501  0.00000000000E+00  0.00000000000E+00  0.12240861393E+03  0.12240861393E+03  0.00000000000E+00 0.  1.
        3   -1    0    0  501    0  0.00000000000E+00  0.00000000000E+00 -0.13173797075E+02  0.13173797075E+02  0.00000000000E+00 0. -1.
      -24    2    1    2    0    0  0.00000000000E+00  0.00000000000E+00  0.10923481686E+03  0.13558241101E+03  0.80314039625E+02 0.  0.
       11    1    3    3    0    0  0.29503832143E+02  0.18666080890E+02  0.21121811314E+02  0.40804774231E+02  0.00000000000E+00 0. -1.
      -12    1    3    3    0    0 -0.29503832143E+02 -0.18666080890E+02  0.88113005545E+02  0.94777636778E+02  0.00000000000E+00 0.  1.
</event>
<event>
 5   1  0.6181100E+00  0.7998758E+02  0.7957747E-01  0.1327598E+00
       -4   -1    0    0    0  501  0.00000000000E+00  0.00000000000E+00  0.23370185105E+02  0.23370185105E+02  0.00000000000E+00 0.  1.
        3   -1    0    0  501    0  0.00000000000E+00  0.00000000000E+00 -0.68442043862E+02  0.68442043862E+02  0.00000000000E+00 0. -1.
      -24    2    1    2    0    0  0.00000000000E+00  0.00000000000E+00 -0.45071858756E+02  0.91812228967E+02  0.79987579887E+02 0.  0.
       11    1    3    3    0    0  0.15025571091E+02 -0.25132893463E+02 -0.53804017161E+02  0.61256039564E+02  0.00000000000E+00 0. -1.
      -12    1    3    3    0    0 -0.15025571091E+02  0.25132893463E+02  0.87321584044E+01  0.30556189403E+02  0.00000000000E+00 0.  1.
</event>
<event>
 5   1  0.6181100E+00  0.7852850E+02  0.7957747E-01  0.1331569E+00
        1   -1    0    0  501    0  0.00000000000E+00  0.00000000000E+00  0.70656906543E+01  0.70656906543E+01  0.00000000000E+00 0. -1.
       -2   -1    0    0    0  501  0.00000000000E+00  0.00000000000E+00 -0.21819257647E+03  0.21819257647E+03  0.00000000000E+00 0.  1.
      -24    2    1    2    0    0  0.00000000000E+00  0.00000000000E+00 -0.21112688581E+03  0.22525826712E+03  0.78528497971E+02 0.  0.
       11    1    3    3    0    0 -0.30304309843E+02  0.24910453779E+02 -0.10076410062E+03  0.10813087383E+03  0.00000000000E+00 0. -1.
      -12    1    3    3    0    0  0.30304309843E+02 -0.24910453779E+02 -0.11036278520E+03  0.11712739329E+03  0.00000000000E+00 0.  1.
</event>
<event>
 4   3  0.6181100E+00  0.1891673E+03  0.7957747E-01  0.1165136E+00
       21   -1    0    0  503  502  0.00000000000E+00  0.00000000000E+00  0.25997697365E+03  0.25997697365E+03  0.00000000000E+00 0.  1.
       21   -1    0    0  501  503  0.00000000000E+00  0.00000000000E+00 -0.17688897172E+03  0.17688897172E+03  0.00000000000E+00 0. -1.
        6    1    1    2  501    0 -0.50519909060E+02  0.57471759877E+02 -0.61342869883E+02  0.19886480855E+03  0.17300000000E+03 0. -1.
       -6    1    1    2    0  502  0.50519909060E+02 -0.57471759877E+02  0.14443087182E+03  0.23800113682E+03  0.17300000000E+03 0.  1.
</event>
<event>
 5   1  0.6181100E+00  0.6213410E+02  0.7957747E-01  0.1384235E+00
        3   -1    0    0  501    0  0.00000000000E+00  0.00000000000E+00  0.46250333374E+01  0.46250333374E+01  0.00000000000E+00 0. -1.
       -4   -1    0    0    0  501  0.00000000000E+00  0.00000000000E+00 -0.20868207504E+03  0.20868207504E+03  0.00000000000E+00 0.  1.
      -24    2    1    2    0    0  0.00000000000E+00  0.00000000000E+00 -0.20405704170E+03  0.21330710838E+03  0.62134098657E+02 0.  0.
       11    1    3    3    0    0  0.10444780590E+02  0.12519663993E+02 -0.11243289983E+02  0.19805226525E+02  0.00000000000E+00 0. -1.
      -12    1    3    3    0    0 -0.10444780590E+02 -0.12519663993E+02 -0.19281375172E+03  0.19350188185E+03  0.00000000000E+00 0.  1.
</event>
<event>
 5   1  0.6181100E+00  0.8000683E+02  0.7957747E-01  0.1327546E+00
       -4   -1    0    0    0  501  0.00000000000E+00  0.00000000000E+00  0.10959637128E+02  0.10959637128E+02  0.00000000000E+00 0.  1.
        3   -1    0    0  501    0  0.00000000000E+00  0.00000000000E+00 -0.14601517151E+03  0.14601517151E+03  0.00000000000E+00 0. -1.
      -24    2    1    2    0    0  0.00000000000E+00  0.00000000000E+00 -0.13505553438E+03  0.15697480863E+03  0.80006832079E+02 0.  0.
       11    1    3    3    0    0  0.84889128937E+01  0.37869051630E+02 -0.48490475463E+02  0.62108396566E+02  0.00000000000E+00 0. -1.
      -12    1    3    3    0    0 -0.84889128937E+01 -0.37869051630E+02 -0.86565058916E+02  0.94866412068E+02  0.00000000000E+00 0.  1.
</event>
<event>
 5   1  0.6181100E+00  0.8063210E+02  0.7957747E-01  0.1325874E+00
        3   -1    0    0  501    0  0.00000000000E+00  0.00000000000E+00  0.65331282969E+02  0.65331282969E+02  0.00000000000E+00 0. -1.
       -4   -1    0    0    0  501  0.00000000000E+00  0.00000000000E+00 -0.24879107781E+02  0.24879107781E+02  0.00000000000E+00 0.  1.
      -24    2    1    2    0    0  0.00000000000E+00  0.00000000000E+00  0.40452175188E+02  0.90210390749E+02  0.80632103543E+02 0.  0.
       11    1    3    3    0    0  0.15775040299E+02 -0.36799092561E+02  0.25516310745E+02  0.47477439103E+02  0.00000000000E+00 0. -1.
      -12    1    3    3    0    0 -0.15775040299E+02  0.36799092561E+02  0.14935864443E+02  0.42732951646E+02  0.00000000000E+00 0.  1.
</event>
<event>
 5   1  0.6181100E+00  0.7971521E+02  0.7957747E-01  0.1328332E+00
       -2   -1    0    0    0  501  0.00000000000E+00  0.00000000000E+00  0.31626901610E+03  0.31626901610E+03  0.00000000000E+00 0.  1.
        1   -1    0    0  501    0  0.00000000000E+00  0.00000000000E+00 -0.50230298588E+01  0.50230298588E+01  0.00000000000E+00 0. -1.
      -24    2    1    2    0    0  0.00000000000E+00  0.00000000000E+00  0.31124598624E+03  0.32129204596E+03  0.79715210877E+02 0.  0.
       11    1    3    3    0    0  0.26864226929E+02 -0.28134778925E+02  0.19061557623E+03  0.19454446889E+03  0.00000000000E+00 0. -1.
      -12    1    3    3    0    0 -0.26864226929E+02  0.28134778925E+02  0.12063041001E+03  0.12674757707E+03  0.00000000000E+00 0.  1.
</event>
<event>
 4   3  0.6181100E+00  0.1797492E+03  0.7957747E-01  0.1173657E+00
       21   -1    0    0  501  502  0.00000000000E+00  0.00000000000E+00  0.25380082207E+03  0.25380082207E+03  0.00000000000E+00 0. -1.
       21   -1    0    0  502  503  0.00000000000E+00  0.00000000000E+00 -0.12841292656E+03  0.12841292656E+03  0.00000000000E+00 0. -1.
        6    1    1    2  501    0 -0.11312153028E+02 -0.47463724273E+02  0.44931913664E+02  0.18527991471E+03  0.17300000000E+03 0. -1.
       -6    1    1    2    0  503  0.11312153028E+02  0.47463724273E+02  0.80455981854E+02  0.19693383392E+03  0.17300000000E+03 0. -1.
</event>
<event>
 5   1  0.6181100E+00  0.7951153E+02  0.7957747E-01  0.1328883E+00
        1   -1    0    0  501    0  0.00000000000E+00  0.00000000000E+00  0.34450632090E+01  0.34450632090E+01  0.00000000000E+00 0. -1.
       -2   -1    0    0    0  501  0.00000000000E+00  0.00000000000E+00 -0.45877848164E+03  0.45877848164E+03  0.00000000000E+00 0.  1.
      -24    2    1    2    0    0  0.00000000000E+00  0.00000000000E+00 -0.45533341843E+03  0.46222354485E+03  0.79511530439E+02 0.  0.
       11    1    3    3    0    0 -0.11495357527E+02 -0.15544356719E+01 -0.66117340236E+01  0.13351948986E+02  0.00000000000E+00 0. -1.
      -12    1    3    3    0    0  0.11495357527E+02  0.15544356719E+01 -0.44872168441E+03  0.44887159586E+03  0.00000000000E+00 0.  1.
</event>
<event>
 5   1  0.6181100E+00  0.8048242E+02  0.7957747E-01  0.1326273E+00
       -4   -1    0    0    0  501  0.00000000000E+00  0.00000000000E+00  0.51949310356E+02  0.51949310356E+02  0.00000000000E+00 0.  1.
        3   -1    0    0  501    0  0.00000000000E+00  0.00000000000E+00 -0.31171829494E+02  0.31171829494E+02  0.00000000000E+00 0. -1.
      -24    2    1    2    0    0  0.00000000000E+00  0.00000000000E+00  0.20777480862E+02  0.83121139851E+02  0.80482421553E+02 0.  0.
       11    1    3    3    0    0 -0.82918762577E+00 -0.21674436738E+02 -0.24617782629E+02  0.32810120109E+02  0.00000000000E+00 0. -1.
      -12    1    3    3    0    0  0.82918762577E+00  0.21674436738E+02  0.45395263491E+02  0.50311019741E+02  0.00000000000E+00 0.  1.
</event>
<event>
 6   2  0.6181100E+00  0.1074435E+03  0.7957747E-01  0.1267031E+00
       -4   -1    0    0    0  501  0.00000000000E+00  0.00000000000E+00  0.47278425253E+03  0.47278425253E+03  0.00000000000E+00 0.  1.
       21   -1    0    0  501  502  0.00000000000E+00  0.00000000000E+00 -0.16896991356E+02  0.16896991356E+02  0.00000000000E+00 0. -1.
      -24    2    1    2    0    0 -0.53026747807E+02  0.47219116472E+02  0.28847240399E+03  0.30783181345E+03  0.80638803100E+02 0.  0.
       11    1    3    3    0    0 -0.60815966958E+02  0.64157254684E+02  0.24761526585E+03  0.26292214636E+03  0.00000000000E+00 0. -1.
      -12    1    3    3    0    0  0.77892191506E+01 -0.16938138212E+02  0.40857138138E+02  0.44909667087E+02  0.00000000000E+00 0.  1.
       -3    1    1    2    0  502  0.53026747807E+02 -0.47219116472E+02  0.16741485719E+03  0.18184943044E+03  0.00000000000E+00 0.  1.
</event>
<event>
 5   1  0.6181100E+00  0.8061266E+02  0.7957747E-01  0.1325926E+00
        1   -1    0    0  501    0  0.00000000000E+00  0.00000000000E+00  0.48367754780E+02  0.48367754780E+02  0.00000000000E+00 0. -1.
       -2   -1    0    0    0  501  0.00000000000E+00  0.00000000000E+00 -0.33588499005E+02  0.33588499005E+02  0.00000000000E+00 0.  1.
      -24    2    1    2    0    0  0.00000000000E+00  0.00000000000E+00  0.14779255775E+02  0.81956253785E+02  0.80612661122E+02 0.  0.
       11    1    3    3    0    0 -0.32914414217E+02  0.19295734948E+02  0.20603026427E+02  0.43360912679E+02  0.00000000000E+00 0. -1.
      -12    1    3    3    0    0  0.32914414217E+02 -0.19295734948E+02 -0.58237706526E+01  0.38595341105E+02  0.00000000000E+00 0.  1.
</event>
<event>
 5   1  0.6181100E+00  0.8191936E+02  0.7957747E-01  0.1322486E+00
       -2   -1    0    0    0  501  0.00000000000E+00  0.00000000000E+00  0.55659303312E+01  0.55659303312E+01  0.00000000000E+00 0.  1.
        1   -1    0    0  501    0  0.00000000000E+00  0.00000000000E+00 -0.30142230570E+03  0.30142230570E+03  0.00000000000E+00 0. -1.
      -24    2    1    2    0    0  0.00000000000E+00  0.00000000000E+00 -0.29585637537E+03  0.30698823603E+03  0.81919364104E+02 0.  0.
       11    1    3    3    0    0 -0.47562604188E+01 -0.36643013032E+02 -0.21415975745E+03  0.21732403026E+03  0.00000000000E+00 0. -1.
      -12    1    3    3    0    0  0.47562604188E+01  0.36643013032E+02 -0.81696617913E+02  0.89664205766E+02  0.00000000000E+00 0.  1.
</event>
<event>
 5   1  0.6181100E+00  0.7894807E+02  0.7957747E-01  0.1330417E+00
       -2   -1    0    0    0  501  0.00000000000E+00  0.00000000000E+00  0.92781742325E+02  0.92781742325E+02  0.00000000000E+00 0.  1.
        1   -1    0    0  501    0  0.00000000000E+00  0.00000000000E+00 -0.16794245035E+02  0.16794245035E+02  0.00000000000E+00 0. -1.
      -24    2    1    2    0    0  0.00000000000E+00  0.00000000000E+00  0.75987497289E+02  0.10957598736E+03  0.78948066864E+02 0.  0.
       11    1    3    3    0    0 -0.24433760988E+02 -0.20273548862E+02  0.54382863418E+01  0.32211805565E+02  0.00000000000E+00 0. -1.
      -12    1    3    3    0    0  0.24433760988E+02  0.20273548862E+02  0.70549210947E+02  0.77364181795E+02  0.00000000000E+00 0.  1.
</event>
<event>
 5   1  0.6181100E+00  0.8058981E+02  0.7957747E-01  0.1325987E+00
       -2   -1    0    0    0  501  0.00000000000E+00  0.00000000000E+00  0.21343332765E+02  0.21343332765E+02  0.00000000000E+00 0.  1.
        1   -1    0    0  501    0  0.00000000000E+00  0.00000000000E+00 -0.76074317794E+02  0.76074317794E+02  0.00000000000E+00 0. -1.
      -24    2    1    2    0    0  0.00000000000E+00  0.00000000000E+00 -0.54730985029E+02  0.97417650560E+02  0.80589812745E+02 0.  0.
       11    1    3    3    0    0  0.28379757984E+02 -0.18247532143E+02 -0.53994871209E+02  0.63669688309E+02  0.00000000000E+00 0. -1.
      -12    1    3    3    0    0 -0.28379757984E+02  0.18247532143E+02 -0.73611382021E+00  0.33747962251E+02  0.00000000000E+00 0.  1.
</event>
<event>
 5   1  0.6181100E+00  0.7924237E+02  0.7957747E-01  0.1329614E+00
        1   -1    0    0  501    0  0.00000000000E+00  0.00000000000E+00  0.84303648724E+02  0.84303648724E+02  0.00000000000E+00 0. -1.
       -2   -1    0    0    0  501  0.00000000000E+00  0.00000000000E+00 -0.18621237102E+02  0.18621237102E+02  0.00000000000E+00 0.  1.
      -24    2    1    2    0    0  0.00000000000E+00  0.00000000000E+00  0.65682411622E+02  0.10292488583E+03  0.79242368249E+02 0.  0.
       11    1    3    3    0    0  0.33659248795E+02 -0.16413006437E+02  0.49651630219E+02  0.62190161546E+02  0.00000000000E+00 0. -1.
      -12    1    3    3    0    0 -0.33659248795E+02  0.16413006437E+02  0.16030781404E+02  0.40734724280E+02  0.00000000000E+00 0.  1.
</event>
<event>
 5   1  0.6181100E+00  0.8114605E+02  0.7957747E-01  0.1324513E+00
        1   -1    0    0  501    0  0.00000000000E+00  0.00000000000E+00  0.28558348499E+02  0.28558348499E+02  0.00000000000E+00 0. -1.
       -2   -1    0    0    0  501  0.00000000000E+00  0.00000000000E+00 -0.57642357182E+02  0.57642357182E+02  0.00000000000E+00 0.  1.
      -24    2    1    2    0    0  0.00000000000E+00  0.00000000000E+00 -0.29084008683E+02  0.86200705681E+02  0.81146054117E+02 0.  0.
       11    1    3    3    0    0  0.31654380845E+02 -0.25365151933E+02 -0.13603955621E+02  0.42783856393E+02  0.00000000000E+00 0. -1.
      -12    1    3    3    0    0 -0.31654380845E+02  0.25365151933E+02 -0.15480053062E+02  0.43416849288E+02  0.00000000000E+00 0.  1.
</event>
<event>
 6   2  0.6181100E+00  0.8250628E+02  0.7957747E-01  0.1320964E+00
       -2   -1    0    0    0  501  0.00000000000E+00  0.00000000000E+00  0.34898008648E+01  0.34898008648E+01  0.00000000000E+00 0.  1.
        1   -1    0    0  502    0  0.00000000000E+00  0.00000000000E+00 -0.92076862565E+03  0.92076862565E+03  0.00000000000E+00 0. -1.
      -24    2    1    2    0    0  0.14411640978E+02  0.16064696561E+02 -0.53046372167E+03  0.53684173370E+03  0.79633643429E+02 0.  0.
       11    1    3    3    0    0 -0.29179395349E+02 -0.98859110138E+01 -0.16217721663E+03  0.16507761188E+03  0.00000000000E+00 0. -1.
      -12    1    3    3    0    0  0.43591036327E+02  0.25950607575E+02 -0.36828650504E+03  0.37176412182E+03  0.00000000000E+00 0.  1.
       21    1    1    2  502  501 -0.14411640978E+02 -0.16064696561E+02 -0.38681510312E+03  0.38741669282E+03  0.00000000000E+00 0. -1.
</event>
<event>
 4   1  0.6181100E+00  0.1218965E+03  0.7957747E-01  0.1242782E+00
        1   -1    0    0  501    0  0.00000000000E+00  0.00000000000E+00  0.80827113178E+02  0.80827113178E+02  0.00000000000E+00 0. -1.
       -2   -1    0    0    0  501  0.00000000000E+00  0.00000000000E+00 -0.45958418487E+02  0.45958418487E+02  0.00000000000E+00 0.  1.
       11    1    1    2    0    0 -0.21511257719E+02 -0.41431784585E+02  0.58189604923E+02  0.74601321058E+02  0.00000000000E+00 0. -1.
      -12    1    1    2    0    0  0.21511257719E+02  0.41431784585E+02 -0.23320910231E+02  0.52184210606E+02  0.00000000000E+00 0.  1.
</event>
<event>
 4   3  0.6181100E+00  0.2264992E+03  0.7957747E-01  0.1136047E+00
       21   -1    0    0  501  502  0.00000000000E+00  0.00000000000E+00  0.62853435585E+03  0.62853435585E+03  0.00000000000E+00 0.  1.
       21   -1    0    0  502  503  0.00000000000E+00  0.00000000000E+00 -0.16355188969E+03  0.16355188969E+03  0.00000000000E+00 0.  1.
        6    1    1    2  501    0 -0.11548194288E+03 -0.89648200286E+02  0.51280044053E+03  0.56059447977E+03  0.17300000000E+03 0.  1.
       -6    1    1    2    0  503  0.11548194288E+03  0.89648200286E+02 -0.47817974360E+02  0.23149176577E+03  0.17300000000E+03 0.  1.
</event>
<event>
 5   1  0.6181100E+00  0.8701898E+02  0.7957747E-01  0.1309722E+00
       -4   -1    0    0    0  501  0.00000000000E+00  0.00000000000E+00  0.32233958711E+02  0.32233958711E+02  0.00000000000E+00 0.  1.
        3   -1    0    0  501    0  0.00000000000E+00  0.00000000000E+00 -0.58729228999E+02  0.58729228999E+02  0.00000000000E+00 0. -1.
      -24    2    1    2    0    0  0.00000000000E+00  0.00000000000E+00 -0.26495270288E+02  0.90963187710E+02  0.87018975923E+02 0.  0.
       11    1    3    3    0    0  0.40814750782E+02 -0.14090905890E+02 -0.76497191233E+01  0.43851062848E+02  0.00000000000E+00 0. -1.
      -12    1    3    3    0    0 -0.40814750782E+02  0.14090905890E+02 -0.18845551165E+02  0.47112124861E+02  0.00000000000E+00 0.  1.
</event>
<event>
 5   1  0.6181100E+00  0.7740276E+02  0.7957747E-01  0.1334700E+00
        1   -1    0    0  501    0  0.00000000000E+00  0.00000000000E+00  0.15041592975E+03  0.15041592975E+03  0.00000000000E+00 0. -1.
       -2   -1    0    0    0  501  0.00000000000E+00  0.00000000000E+00 -0.99576995913E+01  0.99576995913E+01  0.00000000000E+00 0.  1.
      -24    2    1    2    0    0  0.00000000000E+00  0.00000000000E+00  0.14045823016E+03  0.16037362934E+03  0.77402755563E+02 0.  0.
       11    1    3    3    0    0  0.38308080695E+02 -0.73614950613E+00  0.81529376301E+02  0.90083795228E+02  0.00000000000E+00 0. -1.
      -12    1    3    3    0    0 -0.38308080695E+02  0.73614950613E+00  0.58928853855E+02  0.70289834111E+02  0.00000000000E+00 0.  1.
</event>
<event>
 6   2  0.6181100E+00  0.8049199E+02  0.7957747E-01  0.1326248E+00
       21   -1    0    0  501  502  0.00000000000E+00  0.00000000000E+00  0.13059031777E+03  0.13059031777E+03  0.00000000000E+00 0. -1.
        1   -1    0    0  502    0  0.00000000000E+00  0.00000000000E+00 -0.73291939646E+02  0.73291939646E+02  0.00000000000E+00 0. -1.
      -24    2    1    2    0    0  0.18038155497E+02  0.15513588314E+02 -0.49480928078E+02  0.94484511967E+02  0.76895476344E+02 0.  0.
       11    1    3    3    0    0  0.39378800166E+02  0.19410062911E+02 -0.56619778172E+02  0.71646630940E+02  0.00000000000E+00 0. -1.
      -12    1    3    3    0    0 -0.21340644669E+02 -0.38964745964E+01  0.71388500944E+01  0.22837881028E+02  0.00000000000E+00 0.  1.
        2    1    1    2  501    0 -0.18038155497E+02 -0.15513588314E+02  0.10677930621E+03  0.10939774545E+03  0.00000000000E+00 0. -1.
</event>
<event>
 6   2  0.6181100E+00  0.9480431E+02  0.7957747E-01  0.1292029E+00
       21   -1    0    0  501  502  0.00000000000E+00  0.00000000000E+00  0.36983467258E+02  0.36983467258E+02  0.00000000000E+00 0.  1.
       -2   -1    0    0    0  501  0.00000000000E+00  0.00000000000E+00 -0.18568571608E+03  0.18568571608E+03  0.00000000000E+00 0.  1.
      -24    2    1    2    0    0  0.37628678033E+01  0.47307533079E+02 -0.37841034011E+02  0.10207743068E+03  0.82071286930E+02 0.  0.
       11    1    3    3    0    0  0.94752622445E+01  0.11770053578E+02 -0.58606664943E+02  0.60523185075E+02  0.00000000000E+00 0. -1.
      -12    1    3    3    0    0 -0.57123944413E+01  0.35537479501E+02  0.20765630933E+02  0.41554245602E+02  0.00000000000E+00 0.  1.
       -1    1    1    2    0  502 -0.37628678033E+01 -0.47307533079E+02 -0.11086121481E+03  0.12059175266E+03  0.00000000000E+00 0.  1.
</event>
<event>
 5   1  0.6181100E+00  0.8180649E+02  0.7957747E-01  0.1322780E+00
        3   -1    0    0  501    0  0.00000000000E+00  0.00000000000E+00  0.53676638952E+01  0.53676638952E+01  0.00000000000E+00 0. -1.
       -4   -1    0    0    0  501  0.00000000000E+00  0.00000000000E+00 -0.31169526635E+03  0.31169526635E+03  0.00000000000E+00 0.  1.
      -24    2    1    2    0    0  0.00000000000E+00  0.00000000000E+00 -0.30632760245E+03  0.31706293024E+03  0.81806489412E+02 0.  0.
       11    1    3    3    0    0  0.10621141355E+02 -0.34219427588E+02 -0.76692487099E+02  0.84649367662E+02  0.00000000000E+00 0. -1.
      -12    1    3    3    0    0 -0.10621141355E+02  0.34219427588E+02 -0.22963511535E+03  0.23241356258E+03  0.00000000000E+00 0.  1.
</event>
<event>
 5   1  0.6181100E+00  0.7993240E+02  0.7957747E-01  0.1327747E+00
       -4   -1    0    0    0  501  0.00000000000E+00  0.00000000000E+00  0.47070806173E+03  0.47070806173E+03  0.00000000000E+00 0.  1.
        3   -1    0    0  501    0  0.00000000000E+00  0.00000000000E+00 -0.33933926789E+01  0.33933926789E+01  0.00000000000E+00 0. -1.
      -24    2    1    2    0    0  0.00000000000E+00  0.00000000000E+00  0.46731466905E+03  0.47410145441E+03  0.79932403707E+02 0.  0.
       11    1    3    3    0    0 -0.35634260038E+02  0.16611301335E+02  0.19106699914E+03  0.19507007454E+03  0.00000000000E+00 0. -1.
      -12    1    3    3    0    0  0.35634260038E+02 -0.16611301335E+02  0.27624766991E+03  0.27903137987E+03  0.00000000000E+00 0.  1.
</event>
<event>
 5   1  0.6181100E+00  0.8128530E+02  0.7957747E-01  0.1324146E+00
       -2   -1    0    0    0  501  0.00000000000E+00  0.00000000000E+00  0.89879210761E+02  0.89879210761E+02  0.00000000000E+00 0.  1.
        1   -1    0    0  501    0  0.00000000000E+00  0.00000000000E+00 -0.18378277023E+02  0.18378277023E+02  0.00000000000E+00 0. -1.
      -24    2    1    2    0    0  0.00000000000E+00  0.00000000000E+00  0.71500933737E+02  0.10825748778E+03  0.81285300860E+02 0.  0.
       11    1    3    3    0    0  0.20852596411E+02  0.33611503705E+02  0.23309440573E+02  0.45911806523E+02  0.00000000000E+00 0. -1.
      -12    1    3    3    0    0 -0.20852596411E+02 -0.33611503705E+02  0.48191493165E+02  0.62345681261E+02  0.00000000000E+00 0.  1.
</event>
<event>
 6   2  0.6181100E+00  0.9578351E+02  0.7957747E-01  0.1289940E+00
        1   -1    0    0  502    0  0.00000000000E+00  0.00000000000E+00  0.50150956124E+02  0.50150956124E+02  0.00000000000E+00 0. -1.
       21   -1    0    0  501  502  0.00000000000E+00  0.00000000000E+00 -0.10916708696E+03  0.10916708696E+03  0.00000000000E+00 0.  1.
      -24    2    1    2    0    0  0.16984196023E+02  0.47620273354E+02 -0.49694502787E+02  0.10790747901E+03  0.81353101168E+02 0.  0.
       11    1    3    3    0    0 -0.24939358288E+02  0.46527329630E+02 -0.35569086199E+02  0.63654723999E+02  0.00000000000E+00 0. -1.
      -12    1    3    3    0    0  0.41923554311E+02  0.10929437232E+01 -0.14125416587E+02  0.44252755008E+02  0.00000000000E+00 0.  1.
        2    1    1    2  501    0 -0.16984196023E+02 -0.47620273354E+02 -0.93216280444E+01  0.51410564072E+02  0.00000000000E+00 0. -1.
</event>
<event>
 6   2  0.6181100E+00  0.8223692E+02  0.7957747E-01  0.1321661E+00
       -2   -1    0    0    0  501  0.00000000000E+00  0.00000000000E+00  0.34517289616E+02  0.34517289616E+02  0.00000000000E+00 0.  1.
        1   -1    0    0  502    0  0.00000000000E+00  0.00000000000E+00 -0.17937527023E+03  0.17937527023E+03  0.00000000000E+00 0. -1.
      -24    2    1    2    0    0  0.45595663943E+01  0.19512694178E+02 -0.16569711108E+03  0.18498228074E+03  0.79758238991E+02 0.  0.
       11    1    3    3    0    0  0.54862960823E+01  0.40945399182E+02 -0.15611209510E+03  0.16148563836E+03  0.00000000000E+00 0. -1.
      -12    1    3    3    0    0 -0.92672968806E+00 -0.21432705005E+02 -0.95850159747E+01  0.23496642376E+02  0.00000000000E+00 0.  1.
       21    1    1    2  502  501 -0.45595663943E+01 -0.19512694178E+02  0.20839130463E+02  0.28910279110E+02  0.00000000000E+00 0.  1.
</event>
<event>
 5   1  0.6181100E+00  0.7813480E+02  0.7957747E-01  0.1332657E+00
        1   -1    0    0  501    0  0.00000000000E+00  0.00000000000E+00  0.14466984409E+03  0.14466984409E+03  0.00000000000E+00 0. -1.
       -2   -1    0    0    0  501  0.00000000000E+00  0.00000000000E+00 -0.10549965245E+02  0.10549965245E+02  0.00000000000E+00 0.  1.
      -24    2    1    2    0    0  0.00000000000E+00  0.00000000000E+00  0.13411987885E+03  0.15521980934E+03  0.78134802161E+02 0.  0.
       11    1    3    3    0    0  0.14493250705E+02  0.36003103383E+02  0.75940583606E+02  0.85283351292E+02  0.00000000000E+00 0. -1.
      -12    1    3    3    0    0 -0.14493250705E+02 -0.36003103383E+02  0.58179295243E+02  0.69936458047E+02  0.00000000000E+00 0.  1.
</event>
<event>
 5   1  0.6181100E+00  0.7983960E+02  0.7957747E-01  0.1327997E+00
        1   -1    0    0  501    0  0.00000000000E+00  0.00000000000E+00  0.11342816297E+03  0.11342816297E+03  0.00000000000E+00 0. -1.
       -2   -1    0    0    0  501  0.00000000000E+00  0.00000000000E+00 -0.14049337620E+02  0.14049337620E+02  0.00000000000E+00 0.  1.
      -24    2    1    2    0    0  0.00000000000E+00  0.00000000000E+00  0.99378825349E+02  0.12747750059E+03  0.79839603136E+02 0.  0.
       11    1    3    3    0    0 -0.49031322821E+01  0.31085973637E+02  0.10474595873E+02  0.33167689425E+02  0.00000000000E+00 0. -1.
      -12    1    3    3    0    0  0.49031322821E+01 -0.31085973637E+02  0.88904229476E+02  0.94309811165E+02  0.00000000000E+00 0.  1.
</event>
<event>
 5   1  0.6181100E+00  0.8024384E+02  0.7957747E-01  0.1326911E+00
        3   -1    0    0  501    0  0.00000000000E+00  0.00000000000E+00  0.12079665156E+03  0.12079665156E+03  0.00000000000E+00 0. -1.
       -4   -1    0    0    0  501  0.00000000000E+00  0.00000000000E+00 -0.13326268009E+02  0.13326268009E+02  0.00000000000E+00 0.  1.
      -24    2    1    2    0    0  0.00000000000E+00  0.00000000000E+00  0.10747038356E+03  0.13412291957E+03  0.80243842213E+02 0.  0.
       11    1    3    3    0    0 -0.14878708364E+02  0.34674492682E+02  0.76535040673E+02  0.85330585701E+02  0.00000000000E+00 0. -1.
      -12    1    3    3    0    0  0.14878708364E+02 -0.34674492682E+02  0.30935342883E+02  0.48792333872E+02  0.00000000000E+00 0.  1.
</event>
<event>
 6   2  0.6181100E+00  0.8669970E+02  0.7957747E-01  0.1310492E+00
       21   -1    0    0  501  502  0.00000000000E+00  0.00000000000E+00  0.44503599308E+01  0.44503599308E+01  0.00000000000E+00 0. -1.
       -4   -1    0    0    0  501  0.00000000000E+00  0.00000000000E+00 -0.92637102185E+03  0.92637102185E+03  0.00000000000E+00 0.  1.
      -24    2    1    2    0    0  0.20149979938E+01  0.27578316740E+02 -0.83776330583E+03  0.84223761152E+03  0.82171855756E+02 0.  0.
       11    1    3    3    0    0 -0.15878802427E+02 -0.18436816519E+02 -0.10372277247E+03  0.10653856625E+03  0.00000000000E+00 0. -1.
      -12    1    3    3    0    0  0.17893800421E+02  0.46015133260E+02 -0.73404053336E+03  0.73569904526E+03  0.00000000000E+00 0.  1.
       -3    1    1    2    0  502 -0.20149979938E+01 -0.27578316740E+02 -0.84157356082E+02  0.88583770262E+02  0.00000000000E+00 0.  1.
</event>
<event>
 5   1  0.6181100E+00  0.8241163E+02  0.7957747E-01  0.1321208E+00
       -4   -1    0    0    0  501  0.00000000000E+00  0.00000000000E+00  0.13245244126E+03  0.13245244126E+03  0.00000000000E+00 0.  1.
        3   -1    0    0  501    0  0.00000000000E+00  0.00000000000E+00 -0.12819085519E+02  0.12819085519E+02  0.00000000000E+00 0. -1.
      -24    2    1    2    0    0  0.00000000000E+00  0.00000000000E+00  0.11963335575E+03  0.14527152678E+03  0.82411629561E+02 0.  0.
       11    1    3    3    0    0  0.12055090165E+02  0.34504663079E+01 -0.93742867197E+01  0.15655930765E+02  0.00000000000E+00 0. -1.
      -12    1    3    3    0    0 -0.12055090165E+02 -0.34504663079E+01  0.12900764247E+03  0.12961559602E+03  0.00000000000E+00 0.  1.
</event>
<event>
 4   3  0.6181100E+00  0.2735866E+03  0.7957747E-01  0.1107061E+00
       -3   -1    0    0    0  501  0.00000000000E+00  0.00000000000E+00  0.64633305282E+03  0.64633305282E+03  0.00000000000E+00 0. -1.
        3   -1    0    0  502    0  0.00000000000E+00  0.00000000000E+00 -0.11846630731E+03  0.11846630731E+03  0.00000000000E+00 0.  1.
        6    1    1    2  502    0 -0.21127052443E+03 -0.16894342618E+02  0.32123071707E+03  0.42194647397E+03  0.17300000000E+03 0. -1.
       -6    1    1    2    0  501  0.21127052443E+03  0.16894342618E+02  0.20663602843E+03  0.34285288616E+03  0.17300000000E+03 0.  1.
</event>
<event>
 5   1  0.6181100E+00  0.8236450E+02  0.7957747E-01  0.1321330E+00
       -4   -1    0    0    0  501  0.00000000000E+00  0.00000000000E+00  0.10817087755E+03  0.10817087755E+03  0.00000000000E+00 0.  1.
        3   -1    0    0  501    0  0.00000000000E+00  0.00000000000E+00 -0.15678691134E+02  0.15678691134E+02  0.00000000000E+00 0. -1.
      -24    2    1    2    0    0  0.00000000000E+00  0.00000000000E+00  0.92492186413E+02  0.12384956868E+03  0.82364501546E+02 0.  0.
       11    1    3    3    0    0  0.22094368437E+02  0.97514449813E+01 -0.39128685643E+01  0.24465533640E+02  0.00000000000E+00 0. -1.
      -12    1    3    3    0    0 -0.22094368437E+02 -0.97514449813E+01  0.96405054978E+02  0.99384035041E+02  0.00000000000E+00 0.  1.
</event>
<event>
 5   1  0.6181100E+00  0.8252512E+02  0.7957747E-01  0.1320915E+00
       -2   -1    0    0    0  501  0.00000000000E+00  0.00000000000E+00  0.90003889929E+01  0.90003889929E+01  0.00000000000E+00 0.  1.
        1   -1    0    0  501    0  0.00000000000E+00  0.00000000000E+00 -0.18916945561E+03  0.18916945561E+03  0.00000000000E+00 0. -1.
      -24    2    1    2    0    0  0.00000000000E+00  0.00000000000E+00 -0.18016906662E+03  0.19816984460E+03  0.82525115839E+02 0.  0.
       11    1    3    3    0    0  0.17223621753E+02  0.24279614247E+02 -0.15869891039E+03  0.16146670546E+03  0.00000000000E+00 0. -1.
      -12    1    3    3    0    0 -0.17223621753E+02 -0.24279614247E+02 -0.21470156228E+02  0.36703139140E+02  0.00000000000E+00 0.  1.
</event>
<event>
 5   1  0.6181100E+00  0.7982903E+02  0.7957747E-01  0.1328025E+00
        1   -1    0    0  501    0  0.00000000000E+00  0.00000000000E+00  0.31620100280E+02  0.31620100280E+02  0.00000000000E+00 0. -1.
       -2   -1    0    0    0  501  0.00000000000E+00  0.00000000000E+00 -0.50384673135E+02  0.50384673135E+02  0.00000000000E+00 0.  1.
      -24    2    1    2    0    0  0.00000000000E+00  0.00000000000E+00 -0.18764572856E+02  0.82004773415E+02  0.79829027730E+02 0.  0.
       11    1    3    3    0    0 -0.11713703713E+02  0.37783004902E+02 -0.14856900911E+02  0.42255104056E+02  0.00000000000E+00 0. -1.
      -12    1    3    3    0    0  0.11713703713E+02 -0.37783004902E+02 -0.39076719446E+01  0.39749669359E+02  0.00000000000E+00 0.  1.
</event>
<event>
 6   2  0.6181100E+00  0.9931660E+02  0.7957747E-01  0.1282627E+00
        3   -1    0    0  502    0  0.00000000000E+00  0.00000000000E+00  0.11774723416E+03  0.11774723416E+03  0.00000000000E+00 0. -1.
       21   -1    0    0  501  502  0.00000000000E+00  0.00000000000E+00 -0.74700281189E+02  0.74700281189E+02  0.00000000000E+00 0.  1.
      -24    2    1    2    0    0 -0.34739497672E+02  0.47355914476E+02 -0.25144701461E+02  0.10245019834E+03  0.80089773344E+02 0.  0.
       11    1    3    3    0    0 -0.16262241411E+02  0.10280567244E+02  0.28676973120E+02  0.34532873409E+02  0.00000000000E+00 0. -1.
      -12    1    3    3    0    0 -0.18477256261E+02  0.37075347232E+02 -0.53821674581E+02  0.67917324932E+02  0.00000000000E+00 0.  1.
        4    1    1    2  501    0  0.34739497672E+02 -0.47355914476E+02  0.68191654429E+02  0.89997317005E+02  0.00000000000E+00 0. -1.
</event>
<event>
 5   1  0.6181100E+00  0.8009884E+02  0.7957747E-01  0.1327299E+00
        3   -1    0    0  501    0  0.00000000000E+00  0.00000000000E+00  0.68613989666E+01  0.68613989666E+01  0.00000000000E+00 0. -1.
       -4   -1    0    0    0  501  0.00000000000E+00  0.00000000000E+00 -0.23376513330E+03  0.23376513330E+03  0.00000000000E+00 0.  1.
      -24    2    1    2    0    0  0.00000000000E+00  0.00000000000E+00 -0.22690373434E+03  0.24062653227E+03  0.80098835050E+02 0.  0.
       11    1    3    3    0    0  0.21782580113E+02  0.19126324017E+02 -0.30434876472E+02  0.42030688462E+02  0.00000000000E+00 0. -1.
      -12    1    3    3    0    0 -0.21782580113E+02 -0.19126324017E+02 -0.19646885787E+03  0.19859584381E+03  0.00000000000E+00 0.  1.
</event>
<event>
 5   1  0.6181100E+00  0.8069809E+02  0.7957747E-01  0.1325699E+00
       -4   -1    0    0    0  501  0.00000000000E+00  0.00000000000E+00  0.18283123663E+03  0.18283123663E+03  0.00000000000E+00 0.  1.
        3   -1    0    0  501    0  0.00000000000E+00  0.00000000000E+00 -0.89046358130E+01  0.89046358130E+01  0.00000000000E+00 0. -1.
      -24    2    1    2    0    0  0.00000000000E+00  0.00000000000E+00  0.17392660082E+03  0.19173587245E+03  0.80698093595E+02 0.  0.
       11    1    3    3    0    0  0.73707445847E+01 -0.34330656494E+02  0.39734528436E+02  0.53025980434E+02  0.00000000000E+00 0. -1.
      -12    1    3    3    0    0 -0.73707445847E+01  0.34330656494E+02  0.13419207238E+03  0.13870989201E+03  0.00000000000E+00 0.  1.
</event>
<event>
 6   2  0.6181100E+00  0.8852978E+02  0.7957747E-01  0.1306129E+00
       21   -1    0    0  501  502  0.00000000000E+00  0.00000000000E+00  0.41703860564E+02  0.41703860564E+02  0.00000000000E+00 0.  1.
        1   -1    0    0  502    0  0.00000000000E+00  0.00000000000E+00 -0.92966853163E+02  0.92966853163E+02  0.00000000000E+00 0. -1.
      -24    2    1    2    0    0  0.30531364398E+02 -0.11290549520E+02 -0.50894593453E+02  0.10211650604E+03  0.82327883745E+02 0.  0.
       11    1    3    3    0    0  0.16450303271E+02 -0.18831296662E+02 -0.71672196992E+02  0.75908721721E+02  0.00000000000E+00 0. -1.
      -12    1    3    3    0    0  0.14081061127E+02  0.75407471422E+01  0.20777603539E+02  0.26207784316E+02  0.00000000000E+00 0.  1.
        2    1    1    2  501    0 -0.30531364398E+02  0.11290549520E+02 -0.36839914641E+00  0.32554207691E+02  0.00000000000E+00 0. -1.
</event>
<event>
 5   1  0.6181100E+00  0.7953304E+02  0.7957747E-01  0.1328825E+00
       -2   -1    0    0    0  501  0.00000000000E+00  0.00000000000E+00  0.12614777922E+03  0.12614777922E+03  0.00000000000E+00 0.  1.
        1   -1    0    0  501    0  0.00000000000E+00  0.00000000000E+00 -0.12535900850E+02  0.12535900850E+02  0.00000000000E+00 0. -1.
      -24    2    1    2    0    0  0.00000000000E+00  0.00000000000E+00  0.11361187837E+03  0.13868368007E+03  0.79533038486E+02 0.  0.
       11    1    3    3    0    0 -0.11957393407E+02  0.35224114146E+02  0.32290729261E+02  0.49258589816E+02  0.00000000000E+00 0. -1.
      -12    1    3    3    0    0  0.11957393407E+02 -0.35224114146E+02  0.81321149106E+02  0.89425090251E+02  0.00000000000E+00 0.  1.
</event>
<event>
 5   1  0.6181100E+00  0.8725459E+02  0.7957747E-01  0.1309157E+00
       -2   -1    0    0    0  501  0.00000000000E+00  0.00000000000E+00  0.12780856240E+03  0.12780856240E+03  0.00000000000E+00 0.  1.
        1   -1    0    0  501    0  0.00000000000E+00  0.00000000000E+00 -0.14892123489E+02  0.14892123489E+02  0.00000000000E+00 0. -1.
      -24    2    1    2    0    0  0.00000000000E+00  0.00000000000E+00  0.11291643891E+03  0.14270068589E+03  0.87254590577E+02 0.  0.
       11    1    3    3    0    0  0.19150399013E+02  0.14305671766E+02 -0.32290728887E+01  0.24120881799E+02  0.00000000000E+00 0. -1.
      -12    1    3    3    0    0 -0.19150399013E+02 -0.14305671766E+02  0.11614551180E+03  0.11857980409E+03  0.00000000000E+00 0.  1.
</event>
<event>
 5   1  0.6181100E+00  0.8170359E+02  0.7957747E-01  0.1323049E+00
       -4   -1    0    0    0  501  0.00000000000E+00  0.00000000000E+00  0.84467790681E+01  0.84467790681E+01  0.00000000000E+00 0.  1.
        3   -1    0    0  501    0  0.00000000000E+00  0.00000000000E+00 -0.19757460761E+03  0.19757460761E+03  0.00000000000E+00 0. -1.
      -24    2    1    2    0    0  0.00000000000E+00  0.00000000000E+00 -0.18912782854E+03  0.20602138668E+03  0.81703587681E+02 0.  0.
       11    1    3    3    0    0 -0.17011581236E+02  0.23956190676E+02 -0.16613283419E+03  0.16871102977E+03  0.00000000000E+00 0. -1.
      -12    1    3    3    0    0  0.17011581236E+02 -0.23956190676E+02 -0.22994994352E+02  0.37310356915E+02  0.00000000000E+00 0.  1.
</event>
<event>
 5   1  0.6181100E+00  0.7281502E+02  0.7957747E-01  0.1348115E+00
        1   -1    0    0  501    0  0.00000000000E+00  0.00000000000E+00  0.36001660428E+02  0.36001660428E+02  0.00000000000E+00 0. -1.
       -2   -1    0    0    0  501  0.00000000000E+00  0.00000000000E+00 -0.36817934892E+02  0.36817934892E+02  0.00000000000E+00 0.  1.
      -24    2    1    2    0    0  0.00000000000E+00  0.00000000000E+00 -0.81627446366E+00  0.72819595320E+02  0.72815020144E+02 0.  0.
       11    1    3    3    0    0  0.26826389805E-01  0.25048849299E+02  0.26014371050E+02  0.36113613389E+02  0.00000000000E+00 0. -1.
      -12    1    3    3    0    0 -0.26826389805E-01 -0.25048849299E+02 -0.26830645514E+02  0.36705981931E+02  0.00000000000E+00 0.  1.
</event>
<event>
 5   1  0.6181100E+00  0.8353017E+02  0.7957747E-01  0.1318343E+00
       -4   -1    0    0    0  501  0.00000000000E+00  0.00000000000E+00  0.10424064935E+03  0.10424064935E+03  0.00000000000E+00 0.  1.
        3   -1    0    0  501    0  0.00000000000E+00  0.00000000000E+00 -0.16733608866E+02  0.16733608866E+02  0.00000000000E+00 0. -1.
      -24    2    1    2    0    0  0.00000000000E+00  0.00000000000E+00  0.87507040487E+02  0.12097425822E+03  0.83530168304E+02 0.  0.
       11    1    3    3    0    0 -0.25083515570E+02 -0.70804597542E+01 -0.35099666692E+01  0.26298964423E+02  0.00000000000E+00 0. -1.
      -12    1    3    3    0    0  0.25083515570E+02  0.70804597542E+01  0.91017007156E+02  0.94675293796E+02  0.00000000000E+00 0.  1.
</event>
<event>
 4   3  0.6181100E+00  0.1746213E+03  0.7957747E-01  0.1178542E+00
       21   -1    0    0  501  502  0.00000000000E+00  0.00000000000E+00  0.14210982497E+03  0.14210982497E+03  0.00000000000E+00 0.  1.
       21   -1    0    0  502  503  0.00000000000E+00  0.00000000000E+00 -0.28267785487E+03  0.28267785487E+03  0.00000000000E+00 0.  1.
        6    1    1    2  501    0 -0.60771876011E+01  0.22949452630E+02  0.33969878010E+02  0.17789480655E+03  0.17300000000E+03 0. -1.
       -6    1    1    2    0  503  0.60771876011E+01 -0.22949452630E+02 -0.17453790791E+03  0.24689287329E+03  0.17300000000E+03 0. -1.
</event>
<event>
 6   2  0.6181100E+00  0.8891639E+02  0.7957747E-01  0.1305223E+00
       21   -1    0    0  501  502  0.00000000000E+00  0.00000000000E+00  0.20980580208E+02  0.20980580208E+02  0.00000000000E+00 0. -1.
        1   -1    0    0  502    0  0.00000000000E+00  0.00000000000E+00 -0.20180325189E+03  0.20180325189E+03  0.00000000000E+00 0. -1.
      -24    2    1    2    0    0  0.39109336770E+02  0.16486172073E+01 -0.14275361386E+03  0.16818061493E+03  0.79836500475E+02 0.  0.
       11    1    3    3    0    0  0.53672388236E+02  0.72343562579E+01 -0.48672547137E+02  0.72815369354E+02  0.00000000000E+00 0. -1.
      -12    1    3    3    0    0 -0.14563051465E+02 -0.55857390506E+01 -0.94081066723E+02  0.95365245580E+02  0.00000000000E+00 0.  1.
        2    1    1    2  501    0 -0.39109336770E+02 -0.16486172073E+01 -0.38069057826E+02  0.54603217168E+02  0.00000000000E+00 0. -1.
</event>
<event>
 4   3  0.6181100E+00  0.1769386E+03  0.7957747E-01  0.1176312E+00
       21   -1    0    0  503  502  0.00000000000E+00  0.00000000000E+00  0.12299410583E+03  0.12299410583E+03  0.00000000000E+00 0.  1.
       21   -1    0    0  501  503  0.00000000000E+00  0.00000000000E+00 -0.31116697321E+03  0.31116697321E+03  0.00000000000E+00 0.  1.
        6    1    1    2  501    0 -0.36984613010E+02  0.32276726069E+01 -0.18668933671E+03  0.25721622793E+03  0.17300000000E+03 0.  1.
       -6    1    1    2    0  502  0.36984613010E+02 -0.32276726069E+01 -0.14835306699E+01  0.17694485111E+03  0.17300000000E+03 0.  1.
</event>
<event>
 5   1  0.6181100E+00  0.8057898E+02  0.7957747E-01  0.1326016E+00
        1   -1    0    0  501    0  0.00000000000E+00  0.00000000000E+00  0.11304475886E+02  0.11304475886E+02  0.00000000000E+00 0. -1.
       -2   -1    0    0    0  501  0.00000000000E+00  0.00000000000E+00 -0.14359294676E+03  0.14359294676E+03  0.00000000000E+00 0.  1.
      -24    2    1    2    0    0  0.00000000000E+00  0.00000000000E+00 -0.13228847087E+03  0.15489742264E+03  0.80578979988E+02 0.  0.
       11    1    3    3    0    0  0.29747737212E+02  0.52101663245E+01 -0.14880656045E+02  0.33667605004E+02  0.00000000000E+00 0. -1.
      -12    1    3    3    0    0 -0.29747737212E+02 -0.52101663245E+01 -0.11740781483E+03  0.12122981764E+03  0.00000000000E+00 0.  1.
</event>
<event>
 5   1  0.6181100E+00  0.7113298E+02  0.7957747E-01  0.1353318E+00
        3   -1    0    0  501    0  0.00000000000E+00  0.00000000000E+00  0.84471940686E+02  0.84471940686E+02  0.00000000000E+00 0. -1.
       -4   -1    0    0    0  501  0.00000000000E+00  0.00000000000E+00 -0.14975095060E+02  0.14975095060E+02  0.00000000000E+00 0.  1.
      -24    2    1    2    0    0  0.00000000000E+00  0.00000000000E+00  0.69496845626E+02  0.99447035746E+02  0.71132983676E+02 0.  0.
       11    1    3    3    0    0 -0.45896655236E+01 -0.27641806825E+02  0.65372951639E+02  0.71124941618E+02  0.00000000000E+00 0. -1.
      -12    1    3    3    0    0  0.45896655236E+01  0.27641806825E+02  0.41238939873E+01  0.28322094128E+02  0.00000000000E+00 0.  1.
</event>
<event>
 5   1  0.6181100E+00  0.5556927E+02  0.7957747E-01  0.1410844E+00
        1   -1    0    0  501    0  0.00000000000E+00  0.00000000000E+00  0.80526330130E+02  0.80526330130E+02  0.00000000000E+00 0. -1.
       -2   -1    0    0    0  501  0.00000000000E+00  0.00000000000E+00 -0.95867520604E+01  0.95867520604E+01  0.00000000000E+00 0.  1.
      -24    2    1    2    0    0  0.00000000000E+00  0.00000000000E+00  0.70939578070E+02  0.90113082191E+02  0.55569270691E+02 0.  0.
       11    1    3    3    0    0  0.11665038892E+02  0.12727216465E+02  0.70772707498E+02  0.72848001331E+02  0.00000000000E+00 0. -1.
      -12    1    3    3    0    0 -0.11665038892E+02 -0.12727216465E+02  0.16687057183E+00  0.17265080860E+02  0.00000000000E+00 0.  1.
</event>
<event>
 6   2  0.6181100E+00  0.8691043E+02  0.7957747E-01  0.1309984E+00
       21   -1    0    0  501  502  0.00000000000E+00  0.00000000000E+00  0.21546878996E+02  0.21546878996E+02  0.00000000000E+00 0. -1.
       -2   -1    0    0    0  501  0.00000000000E+00  0.00000000000E+00 -0.17538766743E+03  0.17538766743E+03  0.00000000000E+00 0.  1.
      -24    2    1    2    0    0 -0.25920429135E+02  0.24640103887E+02 -0.10286842023E+03  0.13466749506E+03  0.79211230125E+02 0.  0.
       11    1    3    3    0    0  0.24107851361E+02 -0.88730087926E+01 -0.21864482653E+02  0.33733875910E+02  0.00000000000E+00 0. -1.
      -12    1    3    3    0    0 -0.50028280495E+02  0.33513112679E+02 -0.81003937578E+02  0.10093361915E+03  0.00000000000E+00 0.  1.
       -1    1    1    2    0  502  0.25920429135E+02 -0.24640103887E+02 -0.50972368206E+02  0.62267051372E+02  0.00000000000E+00 0.  1.
</event>
<event>
 5   1  0.6181100E+00  0.8046789E+02  0.7957747E-01  0.1326312E+00
        1   -1    0    0  501    0  0.00000000000E+00  0.00000000000E+00  0.20703487274E+03  0.20703487274E+03  0.00000000000E+00 0. -1.
       -2   -1    0    0    0  501  0.00000000000E+00  0.00000000000E+00 -0.78188294178E+01  0.78188294178E+01  0.00000000000E+00 0.  1.
      -24    2    1    2    0    0  0.00000000000E+00  0.00000000000E+00  0.19921604332E+03  0.21485370216E+03  0.80467890577E+02 0.  0.
       11    1    3    3    0    0  0.32351719867E+02 -0.14779629906E+02  0.14982345459E+03  0.15398746308E+03  0.00000000000E+00 0. -1.
      -12    1    3    3    0    0 -0.32351719867E+02  0.14779629906E+02  0.49392588726E+02  0.60866239078E+02  0.00000000000E+00 0.  1.
</event>
<event>
 6   2  0.6181100E+00  0.8691713E+02  0.7957747E-01  0.1309967E+00
        3   -1    0    0  502    0  0.00000000000E+00  0.00000000000E+00  0.44682682374E+02  0.44682682374E+02  0.00000000000E+00 0. -1.
       21   -1    0    0  501  502  0.00000000000E+00  0.00000000000E+00 -0.16760499427E+03  0.16760499427E+03  0.00000000000E+00 0. -1.
      -24    2    1    2    0    0  0.30557874981E+02  0.11481849741E+02 -0.18976667777E+01  0.86937840893E+02  0.80554146034E+02 0.  0.
       11    1    3    3    0    0  0.35079393583E+02 -0.13100223179E+02  0.28880511898E+02  0.47289149590E+02  0.00000000000E+00 0. -1.
      -12    1    3    3    0    0 -0.45215186027E+01  0.24582072919E+02 -0.30778178675E+02  0.39648691303E+02  0.00000000000E+00 0.  1.
        4    1    1    2  501    0 -0.30557874981E+02 -0.11481849741E+02 -0.12102464512E+03  0.12534983575E+03  0.00000000000E+00 0. -1.
</event>
<event>
 5   1  0.6181100E+00  0.8127323E+02  0.7957747E-01  0.1324178E+00
        1   -1    0    0  501    0  0.00000000000E+00  0.00000000000E+00  0.10284397833E+03  0.10284397833E+03  0.00000000000E+00 0. -1.
       -2   -1    0    0    0  501  0.00000000000E+00  0.00000000000E+00 -0.16056696798E+02  0.16056696798E+02  0.00000000000E+00 0.  1.
      -24    2    1    2    0    0  0.00000000000E+00  0.00000000000E+00  0.86787281527E+02  0.11890067512E+03  0.81273232433E+02 0.  0.
       11    1    3    3    0    0  0.89476602973E+01 -0.14886545618E+02  0.97140084590E+02  0.98680625755E+02  0.00000000000E+00 0. -1.
      -12    1    3    3    0    0 -0.89476602973E+01  0.14886545618E+02 -0.10352803063E+02  0.20220049369E+02  0.00000000000E+00 0.  1.
</event>
<event>
 5   1  0.6181100E+00  0.8053478E+02  0.7957747E-01  0.1326134E+00
        3   -1    0    0  501    0  0.00000000000E+00  0.00000000000E+00  0.86356312691E+02  0.86356312691E+02  0.00000000000E+00 0. -1.
       -4   -1    0    0    0  501  0.00000000000E+00  0.00000000000E+00 -0.18776422320E+02  0.18776422320E+02  0.00000000000E+00 0.  1.
      -24    2    1    2    0    0  0.00000000000E+00  0.00000000000E+00  0.67579890371E+02  0.10513273501E+03  0.80534777509E+02 0.  0.
       11    1    3    3    0    0  0.21753613094E+02 -0.30128675333E+02  0.54034923229E+02  0.65579948828E+02  0.00000000000E+00 0. -1.
      -12    1    3    3    0    0 -0.21753613094E+02  0.30128675333E+02  0.13544967142E+02  0.39552786183E+02  0.00000000000E+00 0.  1.
</event>
<event>
 6   2  0.6181100E+00  0.8545802E+02  0.7957747E-01  0.1313522E+00
        1   -1    0    0  502    0  0.00000000000E+00  0.00000000000E+00  0.21049159229E+02  0.21049159229E+02  0.00000000000E+00 0. -1.
       21   -1    0    0  501  502  0.00000000000E+00  0.00000000000E+00 -0.40852990778E+03  0.40852990778E+03  0.00000000000E+00 0. -1.
      -24    2    1    2    0    0 -0.61520882786E+01  0.25366366474E+02 -0.68475755902E+02  0.10950800291E+03  0.81374276136E+02 0.  0.
       11    1    3    3    0    0 -0.18088004291E+02  0.20741164948E+02  0.10534337763E+02  0.29467678815E+02  0.00000000000E+00 0. -1.
      -12    1    3    3    0    0  0.11935916012E+02  0.46252015263E+01 -0.79010093665E+02  0.80040324095E+02  0.00000000000E+00 0.  1.
        2    1    1    2  501    0  0.61520882786E+01 -0.25366366474E+02 -0.31900499265E+03  0.32007106410E+03  0.00000000000E+00 0. -1.
</event>
<event>
 5   1  0.6181100E+00  0.7942373E+02  0.7957747E-01  0.1329121E+00
       -2   -1    0    0    0  501  0.00000000000E+00  0.00000000000E+00  0.72522148394E+03  0.72522148394E+03  0.00000000000E+00 0.  1.
        1   -1    0    0  501    0  0.00000000000E+00  0.00000000000E+00 -0.21745527530E+01  0.21745527530E+01  0.00000000000E+00 0. -1.
      -24    2    1    2    0    0  0.00000000000E+00  0.00000000000E+00  0.72304693119E+03  0.72739603670E+03  0.79423733844E+02 0.  0.
       11    1    3    3    0    0 -0.71577735468E+01 -0.88364349280E+01  0.13055926859E+02  0.17313969231E+02  0.00000000000E+00 0. -1.
      -12    1    3    3    0    0  0.71577735468E+01  0.88364349280E+01  0.70999100433E+03  0.71008206747E+03  0.00000000000E+00 0.  1.
</event>
<event>
 5   1  0.6181100E+00  0.8021129E+02  0.7957747E-01  0.1326998E+00
        3   -1    0    0  501    0  0.00000000000E+00  0.00000000000E+00  0.34665933893E+02  0.34665933893E+02  0.00000000000E+00 0. -1.
       -4   -1    0    0    0  501  0.00000000000E+00  0.00000000000E+00 -0.46398941159E+02  0.46398941159E+02  0.00000000000E+00 0.  1.
      -24    2    1    2    0    0  0.00000000000E+00  0.00000000000E+00 -0.11733007265E+02  0.81064875052E+02  0.80211286661E+02 0.  0.
       11    1    3    3    0    0  0.21795112496E+02  0.17043015079E+02  0.23476437223E+02  0.36285457092E+02  0.00000000000E+00 0. -1.
      -12    1    3    3    0    0 -0.21795112496E+02 -0.17043015079E+02 -0.35209444488E+02  0.44779417960E+02  0.00000000000E+00 0.  1.
</event>
<event>
 5   1  0.6181100E+00  0.8142161E+02  0.7957747E-01  0.1323788E+00
        1   -1    0    0  501    0  0.00000000000E+00  0.00000000000E+00  0.15111656388E+02  0.15111656388E+02  0.00000000000E+00 0. -1.
       -2   -1    0    0    0  501  0.00000000000E+00  0.00000000000E+00 -0.10967491722E+03  0.10967491722E+03  0.00000000000E+00 0.  1.
      -24    2    1    2    0    0  0.00000000000E+00  0.00000000000E+00 -0.94563260832E+02  0.12478657361E+03  0.81421610484E+02 0.  0.
       11    1    3    3    0    0 -0.15462509995E+02 -0.38051658633E+01  0.10140720693E+02  0.18878631273E+02  0.00000000000E+00 0. -1.
      -12    1    3    3    0    0  0.15462509995E+02  0.38051658633E+01 -0.10470398152E+03  0.10590794234E+03  0.00000000000E+00 0.  1.
</event>
<event>
 6   2  0.6181100E+00  0.1062489E+03  0.7957747E-01  0.1269224E+00
       21   -1    0    0  501  502  0.00000000000E+00  0.00000000000E+00  0.76347627781E+02  0.76347627781E+02  0.00000000000E+00 0.  1.
       -2   -1    0    0    0  501  0.00000000000E+00  0.00000000000E+00 -0.16820116460E+03  0.16820116460E+03  0.00000000000E+00 0.  1.
      -24    2    1    2    0    0  0.44236109653E+02  0.47724383716E+02  0.26483886227E+02  0.10949992755E+03  0.83990402464E+02 0.  0.
       11    1    3    3    0    0 -0.30496841796E+01  0.53864011385E+02 -0.19454632409E+01  0.53985341744E+02  0.00000000000E+00 0. -1.
      -12    1    3    3    0    0  0.47285793832E+02 -0.61396276690E+01  0.28429349468E+02  0.55514585808E+02  0.00000000000E+00 0.  1.
       -1    1    1    2    0  502 -0.44236109653E+02 -0.47724383716E+02 -0.11833742305E+03  0.13504886483E+03  0.00000000000E+00 0.  1.
</event>
<event>
 5   1  0.6181100E+00  0.8083535E+02  0.7957747E-01  0.1325335E+00
        1   -1    0    0  501    0  0.00000000000E+00  0.00000000000E+00  0.15948841860E+02  0.15948841860E+02  0.00000000000E+00 0. -1.
       -2   -1    0    0    0  501  0.00000000000E+00  0.00000000000E+00 -0.10242677149E+03  0.10242677149E+03  0.00000000000E+00 0.  1.
      -24    2    1    2    0    0  0.00000000000E+00  0.00000000000E+00 -0.86477929628E+02  0.11837561335E+03  0.80835348226E+02 0.  0.
       11    1    3    3    0    0  0.21392708036E+02  0.10210348317E+02  0.47007402675E+01  0.24166011854E+02  0.00000000000E+00 0. -1.
      -12    1    3    3    0    0 -0.21392708036E+02 -0.10210348317E+02 -0.91178669895E+02  0.94209601494E+02  0.00000000000E+00 0.  1.
</event>
<event>
 5   1  0.6181100E+00  0.8072320E+02  0.7957747E-01  0.1325632E+00
        3   -1    0    0  501    0  0.00000000000E+00  0.00000000000E+00  0.11722827050E+02  0.11722827050E+02  0.00000000000E+00 0. -1.
       -4   -1    0    0    0  501  0.00000000000E+00  0.00000000000E+00 -0.13896467063E+03  0.13896467063E+03  0.00000000000E+00 0.  1.
      -24    2    1    2    0    0  0.00000000000E+00  0.00000000000E+00 -0.12724184358E+03  0.15068749768E+03  0.80723201123E+02 0.  0.
       11    1    3    3    0    0 -0.23287653447E+02 -0.15459096631E+02 -0.92689392523E+01  0.29448458476E+02  0.00000000000E+00 0. -1.
      -12    1    3    3    0    0  0.23287653447E+02  0.15459096631E+02 -0.11797290433E+03  0.12123903920E+03  0.00000000000E+00 0.  1.
</event>
<event>
 5   1  0.6181100E+00  0.8187054E+02  0.7957747E-01  0.1322613E+00
       -2   -1    0    0    0  501  0.00000000000E+00  0.00000000000E+00  0.12961147473E+03  0.12961147473E+03  0.00000000000E+00 0.  1.
        1   -1    0    0  501    0  0.00000000000E+00  0.00000000000E+00 -0.12928610141E+02  0.12928610141E+02  0.00000000000E+00 0. -1.
      -24    2    1    2    0    0  0.00000000000E+00  0.00000000000E+00  0.11668286459E+03  0.14254008487E+03  0.81870537474E+02 0.  0.
       11    1    3    3    0    0  0.14239383671E+02  0.31821827161E+01 -0.82476938828E+01  0.16760393449E+02  0.00000000000E+00 0. -1.
      -12    1    3    3    0    0 -0.14239383671E+02 -0.31821827161E+01  0.12493055847E+03  0.12577969142E+03  0.00000000000E+00 0.  1.
</event>
<event>
 6   2  0.6181100E+00  0.8149990E+02  0.7957747E-01  0.1323582E+00
       21   -1    0    0  501  502  0.00000000000E+00  0.00000000000E+00  0.14659544586E+02  0.14659544586E+02  0.00000000000E+00 0.  1.
       -2   -1    0    0    0  501  0.00000000000E+00  0.00000000000E+00 -0.37618080664E+03  0.37618080664E+03  0.00000000000E+00 0.  1.
      -24    2    1    2    0    0  0.20726151255E+02 -0.29130044889E+01 -0.36080819844E+03  0.36989835035E+03  0.78766582946E+02 0.  0.
       11    1    3    3    0    0  0.42843182336E+02  0.12562714455E+02 -0.12866906395E+03  0.13619503693E+03  0.00000000000E+00 0. -1.
      -12    1    3    3    0    0 -0.22117031081E+02 -0.15475718944E+02 -0.23213913449E+03  0.23370331342E+03  0.00000000000E+00 0.  1.
       -1    1    1    2    0  502 -0.20726151255E+02  0.29130044889E+01 -0.71306361514E+00  0.20942000877E+02  0.00000000000E+00 0.  1.
</event>
<event>
 4   3  0.6181100E+00  0.1969542E+03  0.7957747E-01  0.1158492E+00
       -1   -1    0    0    0  501  0.00000000000E+00  0.00000000000E+00  0.36300644398E+03  0.36300644398E+03  0.00000000000E+00 0. -1.
        1   -1    0    0  502    0  0.00000000000E+00  0.00000000000E+00 -0.13052923308E+03  0.13052923308E+03  0.00000000000E+00 0.  1.
        6    1    1    2  502    0 -0.69207361999E+02 -0.63814600425E+02  0.22131965263E+03  0.29626567608E+03  0.17300000000E+03 0. -1.
       -6    1    1    2    0  501  0.69207361999E+02  0.63814600425E+02  0.11157558266E+02  0.19727000099E+03  0.17300000000E+03 0.  1.
</event>
<event>
 5   1  0.6181100E+00  0.7979547E+02  0.7957747E-01  0.1328116E+00
       -4   -1    0    0    0  501  0.00000000000E+00  0.00000000000E+00  0.12226586480E+02  0.12226586480E+02  0.00000000000E+00 0.  1.
        3   -1    0    0  501    0  0.00000000000E+00  0.00000000000E+00 -0.13019409042E+03  0.13019409042E+03  0.00000000000E+00 0. -1.
      -24    2    1    2    0    0  0.00000000000E+00  0.00000000000E+00 -0.11796750394E+03  0.14242067690E+03  0.79795471193E+02 0.  0.
       11    1    3    3    0    0  0.18420470862E+02 -0.33978977324E+02 -0.76647594372E+02  0.85841355825E+02  0.00000000000E+00 0. -1.
      -12    1    3    3    0    0 -0.18420470862E+02  0.33978977324E+02 -0.41319909571E+02  0.56579321079E+02  0.00000000000E+00 0.  1.
</event>
<event>
 6   2  0.6181100E+00  0.8300928E+02  0.7957747E-01  0.1319671E+00
       21   -1    0    0  501  502  0.00000000000E+00  0.00000000000E+00  0.55393357231E+02  0.55393357231E+02  0.00000000000E+00 0.  1.
       -2   -1    0    0    0  501  0.00000000000E+00  0.00000000000E+00 -0.10499782769E+03  0.10499782769E+03  0.00000000000E+00 0.  1.
      -24    2    1    2    0    0 -0.53089984615E+01 -0.27971082140E+02 -0.82399283892E+02  0.11696231562E+03  0.77974190535E+02 0.  0.
       11    1    3    3    0    0  0.24710810501E+02  0.15371697042E+02 -0.20208107859E+02  0.35429942828E+02  0.00000000000E+00 0. -1.
      -12    1    3    3    0    0 -0.30019808963E+02 -0.43342779182E+02 -0.62191176033E+02  0.81532372796E+02  0.00000000000E+00 0.  1.
       -1    1    1    2    0  502  0.53089984615E+01  0.27971082140E+02  0.32794813430E+02  0.43428869300E+02  0.00000000000E+00 0.  1.
</event>
<event>
 6   2  0.6181100E+00  0.8453239E+02  0.7957747E-01  0.1315819E+00
        1   -1    0    0  502    0  0.00000000000E+00  0.00000000000E+00  0.10877637274E+03  0.10877637274E+03  0.00000000000E+00 0. -1.
       -2   -1    0    0    0  501  0.00000000000E+00  0.00000000000E+00 -0.72206703829E+02  0.72206703829E+02  0.00000000000E+00 0.  1.
      -24    2    1    2    0    0 -0.28196862723E+02 -0.12726161563E+00  0.88191864994E+02  0.12216190358E+03  0.79690942847E+02 0.  0.
       11    1    3    3    0    0 -0.23677649296E+02  0.13996022145E+02  0.99679131815E+02  0.10340429890E+03  0.00000000000E+00 0. -1.
      -12    1    3    3    0    0 -0.45192134277E+01 -0.14123283761E+02 -0.11487266821E+02  0.18757604677E+02  0.00000000000E+00 0.  1.
       21    1    1    2  502  501  0.28196862723E+02  0.12726161563E+00 -0.51622196085E+02  0.58821172988E+02  0.00000000000E+00 0. -1.
</event>
<event>
 6   2  0.6181100E+00  0.9734942E+02  0.7957747E-01  0.1286656E+00
       21   -1    0    0  501  502  0.00000000000E+00  0.00000000000E+00  0.91092259982E+02  0.91092259982E+02  0.00000000000E+00 0.  1.
        1   -1    0    0  502    0  0.00000000000E+00  0.00000000000E+00 -0.13707888626E+03  0.13707888626E+03  0.00000000000E+00 0. -1.
      -24    2    1    2    0    0  0.42547255718E+02 -0.25787859986E+02  0.57701026767E+02  0.11316500690E+03  0.83675728892E+02 0.  0.
       11    1    3    3    0    0  0.22561184102E+02 -0.27608762254E+02 -0.14303011950E+02  0.38416492970E+02  0.00000000000E+00 0. -1.
      -12    1    3    3    0    0  0.19986071616E+02  0.18209022677E+01  0.72004038717E+02  0.74748513934E+02  0.00000000000E+00 0.  1.
        2    1    1    2  501    0 -0.42547255718E+02  0.25787859986E+02 -0.10368765305E+03  0.11500613934E+03  0.00000000000E+00 0. -1.
</event>
<event>
 6   2  0.6181100E+00  0.8179862E+02  0.7957747E-01  0.1322801E+00
       21   -1    0    0  501  502  0.00000000000E+00  0.00000000000E+00  0.16080044152E+03  0.16080044152E+03  0.00000000000E+00 0. -1.
        3   -1    0    0  502    0  0.00000000000E+00  0.00000000000E+00 -0.24127634012E+02  0.24127634012E+02  0.00000000000E+00 0. -1.
      -24    2    1    2    0    0  0.10685934882E+02  0.18634676004E+02  0.50529870628E+02  0.96147188353E+02  0.78927648188E+02 0.  0.
       11    1    3    3    0    0  0.41815131300E+02  0.25062308574E+02  0.22194529705E+02  0.53565116125E+02  0.00000000000E+00 0. -1.
      -12    1    3    3    0    0 -0.31129196417E+02 -0.64276325697E+01  0.28335340923E+02  0.42582072228E+02  0.00000000000E+00 0.  1.
        4    1    1    2  501    0 -0.10685934882E+02 -0.18634676004E+02  0.86142936880E+02  0.88780887180E+02  0.00000000000E+00 0. -1.
</event>
<event>
 6   2  0.6181100E+00  0.8954936E+02  0.7957747E-01  0.1303750E+00
       21   -1    0    0  501  502  0.00000000000E+00  0.00000000000E+00  0.32825449907E+01  0.32825449907E+01  0.00000000000E+00 0. -1.
        1   -1    0    0  502    0  0.00000000000E+00  0.00000000000E+00 -0.15319829139E+04  0.15319829139E+04  0.00000000000E+00 0. -1.
      -24    2    1    2    0    0 -0.39583817134E+02  0.18199647673E+02 -0.74636026441E+03  0.75171319843E+03  0.78236709157E+02 0.  0.
       11    1    3    3    0    0 -0.50168450251E+02  0.12409540239E+02 -0.25395773830E+03  0.25916288880E+03  0.00000000000E+00 0. -1.
      -12    1    3    3    0    0  0.10584633117E+02  0.57901074338E+01 -0.49240252610E+03  0.49255030963E+03  0.00000000000E+00 0.  1.
        2    1    1    2  501    0  0.39583817134E+02 -0.18199647673E+02 -0.78234010451E+03  0.78355226046E+03  0.00000000000E+00 0. -1.
</event>
<event>
 6   2  0.6181100E+00  0.8903970E+02  0.7957747E-01  0.1304935E+00
       -2   -1    0    0    0  501  0.00000000000E+00  0.00000000000E+00  0.83257757634E+02  0.83257757634E+02  0.00000000000E+00 0.  1.
        1   -1    0    0  502    0  0.00000000000E+00  0.00000000000E+00 -0.42755989627E+02  0.42755989627E+02  0.00000000000E+00 0. -1.
      -24    2    1    2    0    0 -0.29104082852E+02  0.83090966032E+01  0.29196651200E+02  0.93704392717E+02  0.83737566529E+02 0.  0.
       11    1    3    3    0    0 -0.55539376138E+02 -0.10106335991E+02  0.22666442595E+02  0.60831964861E+02  0.00000000000E+00 0. -1.
      -12    1    3    3    0    0  0.26435293286E+02  0.18415432594E+02  0.65302086052E+01  0.32872427856E+02  0.00000000000E+00 0.  1.
       21    1    1    2  502  501  0.29104082852E+02 -0.83090966032E+01  0.11305116807E+02  0.32309354544E+02  0.00000000000E+00 0.  1.
</event>
<event>
 5   1  0.6181100E+00  0.8326108E+02  0.7957747E-01  0.1319028E+00
       -2   -1    0    0    0  501  0.00000000000E+00  0.00000000000E+00  0.52252887757E+02  0.52252887757E+02  0.00000000000E+00 0.  1.
        1   -1    0    0  501    0  0.00000000000E+00  0.00000000000E+00 -0.33167576881E+02  0.33167576881E+02  0.00000000000E+00 0. -1.
      -24    2    1    2    0    0  0.00000000000E+00  0.00000000000E+00  0.19085310876E+02  0.85420464637E+02  0.83261075465E+02 0.  0.
       11    1    3    3    0    0  0.25120968041E+02  0.68071432085E+01 -0.23791577788E+02  0.35262436212E+02  0.00000000000E+00 0. -1.
      -12    1    3    3    0    0 -0.25120968041E+02 -0.68071432085E+01  0.42876888664E+02  0.50158028425E+02  0.00000000000E+00 0.  1.
</event>
<event>
 5   1  0.6181100E+00  0.8017061E+02  0.7957747E-01  0.1327107E+00
        1   -1    0    0  501    0  0.00000000000E+00  0.00000000000E+00  0.14206740374E+03  0.14206740374E+03  0.00000000000E+00 0. -1.
       -2   -1    0    0    0  501  0.00000000000E+00  0.00000000000E+00 -0.11310348303E+02  0.11310348303E+02  0.00000000000E+00 0.  1.
      -24    2    1    2    0    0  0.00000000000E+00  0.00000000000E+00  0.13075705544E+03  0.15337775205E+03  0.80170613540E+02 0.  0.
       11    1    3    3    0    0  0.41896432115E+01 -0.36454003018E+02  0.96249806450E+02  0.10300714872E+03  0.00000000000E+00 0. -1.
      -12    1    3    3    0    0 -0.41896432115E+01  0.36454003018E+02  0.34507248991E+02  0.50370603324E+02  0.00000000000E+00 0.  1.
</event>
<event>
 6   2  0.6181100E+00  0.9043246E+02  0.7957747E-01  0.1301718E+00
       21   -1    0    0  501  502  0.00000000000E+00  0.00000000000E+00  0.33304233771E+02  0.33304233771E+02  0.00000000000E+00 0.  1.
       -4   -1    0    0    0  501  0.00000000000E+00  0.00000000000E+00 -0.22178367999E+03  0.22178367999E+03  0.00000000000E+00 0.  1.
      -24    2    1    2    0    0 -0.37900557415E+02  0.18491964389E+02 -0.19254200935E+03  0.21272154245E+03  0.79997651585E+02 0.  0.
       11    1    3    3    0    0  0.22338360161E+02  0.17519042431E+01 -0.23418037205E+02  0.32411047032E+02  0.00000000000E+00 0. -1.
      -12    1    3    3    0    0 -0.60238917576E+02  0.16740060146E+02 -0.16912397214E+03  0.18031049542E+03  0.00000000000E+00 0.  1.
       -3    1    1    2    0  502  0.37900557415E+02 -0.18491964389E+02  0.40625631244E+01  0.42366371316E+02  0.00000000000E+00 0.  1.
</event>
<event>
 5   1  0.6181100E+00  0.8677923E+02  0.7957747E-01  0.1310300E+00
        1   -1    0    0  501    0  0.00000000000E+00  0.00000000000E+00  0.35888097937E+02  0.35888097937E+02  0.00000000000E+00 0. -1.
       -2   -1    0    0    0  501  0.00000000000E+00  0.00000000000E+00 -0.52459134391E+02  0.52459134391E+02  0.00000000000E+00 0.  1.
      -24    2    1    2    0    0  0.00000000000E+00  0.00000000000E+00 -0.16571036454E+02  0.88347232328E+02  0.86779226839E+02 0.  0.
       11    1    3    3    0    0 -0.28141578556E+02  0.24356453049E+02  0.14421602156E+02  0.39914506855E+02  0.00000000000E+00 0. -1.
      -12    1    3    3    0    0  0.28141578556E+02 -0.24356453049E+02 -0.30992638609E+02  0.48432725473E+02  0.00000000000E+00 0.  1.
</event>
<event>
 5   1  0.6181100E+00  0.7856980E+02  0.7957747E-01  0.1331455E+00
       -2   -1    0    0    0  501  0.00000000000E+00  0.00000000000E+00  0.12682321182E+03  0.12682321182E+03  0.00000000000E+00 0.  1.
        1   -1    0    0  501    0  0.00000000000E+00  0.00000000000E+00 -0.12168933372E+02  0.12168933372E+02  0.00000000000E+00 0. -1.
      -24    2    1    2    0    0  0.00000000000E+00  0.00000000000E+00  0.11465427845E+03  0.13899214519E+03  0.78569796096E+02 0.  0.
       11    1    3    3    0    0  0.38730302648E+02 -0.65771759344E+01  0.57172633268E+02  0.69368621013E+02  0.00000000000E+00 0. -1.
      -12    1    3    3    0    0 -0.38730302648E+02  0.65771759344E+01  0.57481645180E+02  0.69623524179E+02  0.00000000000E+00 0.  1.
</event>
<event>
 4   3  0.6181100E+00  0.2526361E+03  0.7957747E-01  0.1119105E+00
       21   -1    0    0  501  502  0.00000000000E+00  0.00000000000E+00  0.10603929781E+04  0.10603929781E+04  0.00000000000E+00 0.  1.
       21   -1    0    0  502  503  0.00000000000E+00  0.00000000000E+00 -0.95416003655E+02  0.95416003655E+02  0.00000000000E+00 0.  1.
        6    1    1    2  501    0 -0.16906285851E+03 -0.72895434487E+02  0.83362620974E+03  0.87106696187E+03  0.17300000000E+03 0.  1.
       -6    1    1    2    0  503  0.16906285851E+03  0.72895434487E+02  0.13135076470E+03  0.28474201988E+03  0.17300000000E+03 0.  1.
</event>
<event>
 5   1  0.6181100E+00  0.7976723E+02  0.7957747E-01  0.1328192E+00
       -2   -1    0    0    0  501  0.00000000000E+00  0.00000000000E+00  0.33591911895E+03  0.33591911895E+03  0.00000000000E+00 0.  1.
        1   -1    0    0  501    0  0.00000000000E+00  0.00000000000E+00 -0.47353741392E+01  0.47353741392E+01  0.00000000000E+00 0. -1.
      -24    2    1    2    0    0  0.00000000000E+00  0.00000000000E+00  0.33118374481E+03  0.34065449308E+03  0.79767229079E+02 0.  0.
       11    1    3    3    0    0 -0.79159616142E+01 -0.25008560916E+02  0.37287870955E+02  0.45590304756E+02  0.00000000000E+00 0. -1.
      -12    1    3    3    0    0  0.79159616142E+01  0.25008560916E+02  0.29389587385E+03  0.29506418833E+03  0.00000000000E+00 0.  1.
</event>
<event>
 6   2  0.6181100E+00  0.2254499E+03  0.7957747E-01  0.1136778E+00
       21   -1    0    0  501  502  0.00000000000E+00  0.00000000000E+00  0.59211384912E+03  0.59211384912E+03  0.00000000000E+00 0.  1.
       -4   -1    0    0    0  501  0.00000000000E+00  0.00000000000E+00 -0.80302543850E+02  0.80302543850E+02  0.00000000000E+00 0.  1.
      -24    2    1    2    0    0 -0.38778943537E+02 -0.20699941387E+03  0.27022962603E+03  0.35192571986E+03  0.80467991821E+02 0.  0.
       11    1    3    3    0    0 -0.20881300259E+02 -0.46179471454E+02  0.12349248779E+03  0.13348770290E+03  0.00000000000E+00 0. -1.
      -12    1    3    3    0    0 -0.17897643278E+02 -0.16081994242E+03  0.14673713824E+03  0.21843801696E+03  0.00000000000E+00 0.  1.
       -3    1    1    2    0  502  0.38778943537E+02  0.20699941387E+03  0.24158167923E+03  0.32049067310E+03  0.00000000000E+00 0.  1.
</event>
<event>
 6   2  0.6181100E+00  0.9092139E+02  0.7957747E-01  0.1300604E+00
       -2   -1    0    0    0  501  0.00000000000E+00  0.00000000000E+00  0.38779358483E+03  0.38779358483E+03  0.00000000000E+00 0.  1.
       21   -1    0    0  501  502  0.00000000000E+00  0.00000000000E+00 -0.21847132241E+02  0.21847132241E+02  0.00000000000E+00 0. -1.
      -24    2    1    2    0    0  0.28029869312E+02  0.27112386828E+02  0.35861411816E+03  0.36996051771E+03  0.82133694839E+02 0.  0.
       11    1    3    3    0    0  0.11860289695E+02 -0.20558617598E+02  0.33989310460E+02  0.41455958012E+02  0.00000000000E+00 0. -1.
      -12    1    3    3    0    0  0.16169579617E+02  0.47671004426E+02  0.32462480770E+03  0.32850455970E+03  0.00000000000E+00 0.  1.
       -1    1    1    2    0  502 -0.28029869312E+02 -0.27112386828E+02  0.73323344306E+01  0.39680199362E+02  0.00000000000E+00 0.  1.
</event>
<event>
 5   1  0.6181100E+00  0.8124341E+02  0.7957747E-01  0.1324256E+00
       -2   -1    0    0    0  501  0.00000000000E+00  0.00000000000E+00  0.14528114873E+03  0.14528114873E+03  0.00000000000E+00 0.  1.
        1   -1    0    0  501    0  0.00000000000E+00  0.00000000000E+00 -0.11358134199E+02  0.11358134199E+02  0.00000000000E+00 0. -1.
      -24    2    1    2    0    0  0.00000000000E+00  0.00000000000E+00  0.13392301453E+03  0.15663928293E+03  0.81243406720E+02 0.  0.
       11    1    3    3    0    0 -0.56243659846E+00  0.16259027850E+02 -0.48027279906E+01  0.16962857003E+02  0.00000000000E+00 0. -1.
      -12    1    3    3    0    0  0.56243659846E+00 -0.16259027850E+02  0.13872574252E+03  0.13967642592E+03  0.00000000000E+00 0.  1.
</event>
<event>
 5   1  0.6181100E+00  0.8748119E+02  0.7957747E-01  0.1308614E+00
       -4   -1    0    0    0  501  0.00000000000E+00  0.00000000000E+00  0.10164284380E+03  0.10164284380E+03  0.00000000000E+00 0.  1.
        3   -1    0    0  501    0  0.00000000000E+00  0.00000000000E+00 -0.18823163215E+02  0.18823163215E+02  0.00000000000E+00 0. -1.
      -24    2    1    2    0    0  0.00000000000E+00  0.00000000000E+00  0.82819680589E+02  0.12046600702E+03  0.87481194288E+02 0.  0.
       11    1    3    3    0    0 -0.22908611723E+02  0.18176369845E+02 -0.33825170192E+01  0.29438517850E+02  0.00000000000E+00 0. -1.
      -12    1    3    3    0    0  0.22908611723E+02 -0.18176369845E+02  0.86202197609E+02  0.91027489169E+02  0.00000000000E+00 0.  1.
</event>
<event>
 5   1  0.6181100E+00  0.7331736E+02  0.7957747E-01  0.1346592E+00
        1   -1    0    0  501    0  0.00000000000E+00  0.00000000000E+00  0.96270504511E+02  0.96270504511E+02  0.00000000000E+00 0. -1.
       -2   -1    0    0    0  501  0.00000000000E+00  0.00000000000E+00 -0.13959194711E+02  0.13959194711E+02  0.00000000000E+00 0.  1.
      -24    2    1    2    0    0  0.00000000000E+00  0.00000000000E+00  0.82311309799E+02  0.11022969922E+03  0.73317357220E+02 0.  0.
       11    1    3    3    0    0 -0.32314025556E+02 -0.39597571666E+01  0.66491642240E+02  0.74033873411E+02  0.00000000000E+00 0. -1.
      -12    1    3    3    0    0  0.32314025556E+02  0.39597571666E+01  0.15819667560E+02  0.36195825811E+02  0.00000000000E+00 0.  1.
</event>
<event>
 6   2  0.6181100E+00  0.8528785E+02  0.7957747E-01  0.1313942E+00
       21   -1    0    0  501  502  0.00000000000E+00  0.00000000000E+00  0.73955178810E+02  0.73955178810E+02  0.00000000000E+00 0.  1.
       -4   -1    0    0    0  501  0.00000000000E+00  0.00000000000E+00 -0.51492157904E+02  0.51492157904E+02  0.00000000000E+00 0.  1.
      -24    2    1    2    0    0  0.23342992689E+02  0.27458607789E+02  0.26182003781E+02  0.89216116985E+02  0.77299079933E+02 0.  0.
       11    1    3    3    0    0 -0.24796844012E+02  0.48554969724E+01  0.25686943916E+02  0.36031630709E+02  0.00000000000E+00 0. -1.
      -12    1    3    3    0    0  0.48139836701E+02  0.22603110816E+02  0.49505986544E+00  0.53184486276E+02  0.00000000000E+00 0.  1.
       -3    1    1    2    0  502 -0.23342992689E+02 -0.27458607789E+02 -0.37189828752E+01  0.36231219728E+02  0.00000000000E+00 0.  1.
</event>
<event>
 4   3  0.6181100E+00  0.2676531E+03  0.7957747E-01  0.1110350E+00
       21   -1    0    0  503  502  0.00000000000E+00  0.00000000000E+00  0.29051595614E+03  0.29051595614E+03  0.00000000000E+00 0.  1.
       21   -1    0    0  501  503  0.00000000000E+00  0.00000000000E+00 -0.30811023354E+03  0.30811023354E+03  0.00000000000E+00 0.  1.
        6    1    1    2  501    0  0.14918917729E+03 -0.13946957667E+03 -0.14254398220E+03  0.30324406062E+03  0.17300000000E+03 0.  1.
       -6    1    1    2    0  502 -0.14918917729E+03  0.13946957667E+03  0.12494970480E+03  0.29538212906E+03  0.17300000000E+03 0.  1.
</event>
<event>
 5   1  0.6181100E+00  0.7810798E+02  0.7957747E-01  0.1332732E+00
       -2   -1    0    0    0  501  0.00000000000E+00  0.00000000000E+00  0.56743593849E+01  0.56743593849E+01  0.00000000000E+00 0.  1.
        1   -1    0    0  501    0  0.00000000000E+00  0.00000000000E+00 -0.26879052048E+03  0.26879052048E+03  0.00000000000E+00 0. -1.
      -24    2    1    2    0    0  0.00000000000E+00  0.00000000000E+00 -0.26311616109E+03  0.27446487986E+03  0.78107976864E+02 0.  0.
       11    1    3    3    0    0  0.17006054374E+02 -0.32815456677E+02 -0.17588831982E+03  0.17972968907E+03  0.00000000000E+00 0. -1.
      -12    1    3    3    0    0 -0.17006054374E+02  0.32815456677E+02 -0.87227841270E+02  0.94735190795E+02  0.00000000000E+00 0.  1.
</event>
<event>
 5   1  0.6181100E+00  0.8060312E+02  0.7957747E-01  0.1325952E+00
       -2   -1    0    0    0  501  0.00000000000E+00  0.00000000000E+00  0.44319006705E+02  0.44319006705E+02  0.00000000000E+00 0.  1.
        1   -1    0    0  501    0  0.00000000000E+00  0.00000000000E+00 -0.36648289575E+02  0.36648289575E+02  0.00000000000E+00 0. -1.
      -24    2    1    2    0    0  0.00000000000E+00  0.00000000000E+00  0.76707171305E+01  0.80967296280E+02  0.80603121315E+02 0.  0.
       11    1    3    3    0    0 -0.15011491092E+02  0.16096725029E+02 -0.30077601347E+02  0.37270786473E+02  0.00000000000E+00 0. -1.
      -12    1    3    3    0    0  0.15011491092E+02 -0.16096725029E+02  0.37748318478E+02  0.43696509808E+02  0.00000000000E+00 0.  1.
</event>
<event>
 5   1  0.6181100E+00  0.7973974E+02  0.7957747E-01  0.1328266E+00
        1   -1    0    0  501    0  0.00000000000E+00  0.00000000000E+00  0.12226914067E+03  0.12226914067E+03  0.00000000000E+00 0. -1.
       -2   -1    0    0    0  501  0.00000000000E+00  0.00000000000E+00 -0.13000881212E+02  0.13000881212E+02  0.00000000000E+00 0.  1.
      -24    2    1    2    0    0  0.00000000000E+00  0.00000000000E+00  0.10926825946E+03  0.13527002188E+03  0.79739741003E+02 0.  0.
       11    1    3    3    0    0 -0.28349036770E+02 -0.17530803149E+02  0.91746394290E+02  0.97613512436E+02  0.00000000000E+00 0. -1.
      -12    1    3    3    0    0  0.28349036770E+02  0.17530803149E+02  0.17521865170E+02  0.37656509449E+02  0.00000000000E+00 0.  1.
</event>
<event>
 5   1  0.6181100E+00  0.8442366E+02  0.7957747E-01  0.1316091E+00
        1   -1    0    0  501    0  0.00000000000E+00  0.00000000000E+00  0.43103862808E+02  0.43103862808E+02  0.00000000000E+00 0. -1.
       -2   -1    0    0    0  501  0.00000000000E+00  0.00000000000E+00 -0.41338254490E+02  0.41338254490E+02  0.00000000000E+00 0.  1.
      -24    2    1    2    0    0  0.00000000000E+00  0.00000000000E+00  0.17656083175E+01  0.84442117298E+02  0.84423656643E+02 0.  0.
       11    1    3    3    0    0  0.20294864776E+02 -0.22749428814E+02  0.30085427937E+02  0.42831659106E+02  0.00000000000E+00 0. -1.
      -12    1    3    3    0    0 -0.20294864776E+02  0.22749428814E+02 -0.28319819620E+02  0.41610458192E+02  0.00000000000E+00 0.  1.
</event>
<event>
 5   1  0.6181100E+00  0.9678651E+02  0.7957747E-01  0.1287828E+00
       -2   -1    0    0    0  501  0.00000000000E+00  0.00000000000E+00  0.14967498819E+03  0.14967498819E+03  0.00000000000E+00 0.  1.
        1   -1    0    0  501    0  0.00000000000E+00  0.00000000000E+00 -0.15646616446E+02  0.15646616446E+02  0.00000000000E+00 0. -1.
      -24    2    1    2    0    0  0.00000000000E+00  0.00000000000E+00  0.13402837174E+03  0.16532160463E+03  0.96786510047E+02 0.  0.
       11    1    3    3    0    0  0.33932233594E+02 -0.33194434386E+02  0.50932554659E+02  0.69623215058E+02  0.00000000000E+00 0. -1.
      -12    1    3    3    0    0 -0.33932233594E+02  0.33194434386E+02  0.83095817080E+02  0.95698389574E+02  0.00000000000E+00 0.  1.
</event>
<event>
 5   1  0.6181100E+00  0.8034255E+02  0.7957747E-01  0.1326647E+00
        1   -1    0    0  501    0  0.00000000000E+00  0.00000000000E+00  0.46785246949E+01  0.46785246949E+01  0.00000000000E+00 0. -1.
       -2   -1    0    0    0  501  0.00000000000E+00  0.00000000000E+00 -0.34492309885E+03  0.34492309885E+03  0.00000000000E+00 0.  1.
      -24    2    1    2    0    0  0.00000000000E+00  0.00000000000E+00 -0.34024457415E+03  0.34960162354E+03  0.80342547527E+02 0.  0.
       11    1    3    3    0    0 -0.60395147136E-01  0.16550666006E+02 -0.10847027194E+02  0.19788536878E+02  0.00000000000E+00 0. -1.
      -12    1    3    3    0    0  0.60395147136E-01 -0.16550666006E+02 -0.32939754696E+03  0.32981308666E+03  0.00000000000E+00 0.  1.
</event>
<event>
 5   1  0.6181100E+00  0.8172787E+02  0.7957747E-01  0.1322985E+00
       -2   -1    0    0    0  501  0.00000000000E+00  0.00000000000E+00  0.13107049637E+02  0.13107049637E+02  0.00000000000E+00 0.  1.
        1   -1    0    0  501    0  0.00000000000E+00  0.00000000000E+00 -0.12740176193E+03  0.12740176193E+03  0.00000000000E+00 0. -1.
      -24    2    1    2    0    0  0.00000000000E+00  0.00000000000E+00 -0.11429471230E+03  0.14050881157E+03  0.81727870827E+02 0.  0.
       11    1    3    3    0    0 -0.21142651281E+01 -0.39726638141E+02 -0.41094398321E+02  0.57196376357E+02  0.00000000000E+00 0. -1.
      -12    1    3    3    0    0  0.21142651281E+01  0.39726638141E+02 -0.73200313977E+02  0.83312435214E+02  0.00000000000E+00 0.  1.
</event>
<event>
 5   1  0.6181100E+00  0.8025920E+02  0.7957747E-01  0.1326870E+00
       -2   -1    0    0    0  501  0.00000000000E+00  0.00000000000E+00  0.66755298669E+03  0.66755298669E+03  0.00000000000E+00 0.  1.
        1   -1    0    0  501    0  0.00000000000E+00  0.00000000000E+00 -0.24123698088E+01  0.24123698088E+01  0.00000000000E+00 0. -1.
      -24    2    1    2    0    0  0.00000000000E+00  0.00000000000E+00  0.66514061688E+03  0.66996535650E+03  0.80259196878E+02 0.  0.
       11    1    3    3    0    0  0.41276698926E+01  0.10463129187E+02  0.11015169204E+02  0.15743210718E+02  0.00000000000E+00 0. -1.
      -12    1    3    3    0    0 -0.41276698926E+01 -0.10463129187E+02  0.65412544768E+03  0.65422214578E+03  0.00000000000E+00 0.  1.
</event>
<event>
 6   2  0.6181100E+00  0.9182907E+02  0.7957747E-01  0.1298557E+00
        1   -1    0    0  502    0  0.00000000000E+00  0.00000000000E+00  0.11338123662E+02  0.11338123662E+02  0.00000000000E+00 0. -1.
       21   -1    0    0  501  502  0.00000000000E+00  0.00000000000E+00 -0.38720933762E+03  0.38720933762E+03  0.00000000000E+00 0. -1.
      -24    2    1    2    0    0 -0.23114661536E+02  0.33170669848E+02 -0.27215552003E+03  0.28723022953E+03  0.82449965199E+02 0.  0.
       11    1    3    3    0    0 -0.39660386671E+02  0.18739554725E+00 -0.21875044592E+03  0.22231675371E+03  0.00000000000E+00 0. -1.
      -12    1    3    3    0    0  0.16545725135E+02  0.32983274301E+02 -0.53405074107E+02  0.64913475829E+02  0.00000000000E+00 0.  1.
        2    1    1    2  501    0  0.23114661536E+02 -0.33170669848E+02 -0.10371569393E+03  0.11131723175E+03  0.00000000000E+00 0. -1.
</event>
<event>
 6   2  0.6181100E+00  0.8360199E+02  0.7957747E-01  0.1318161E+00
        1   -1    0    0  502    0  0.00000000000E+00  0.00000000000E+00  0.20069589715E+04  0.20069589715E+04  0.00000000000E+00 0. -1.
       -2   -1    0    0    0  501  0.00000000000E+00  0.00000000000E+00 -0.53023201371E+01  0.53023201371E+01  0.00000000000E+00 0.  1.
      -24    2    1    2    0    0 -0.12632997238E+02  0.19188986409E+02  0.32929354924E+03  0.33974039336E+03  0.80383353335E+02 0.  0.
       11    1    3    3    0    0 -0.44246728660E+02  0.58270140916E+01  0.23926301829E+03  0.24338964442E+03  0.00000000000E+00 0. -1.
      -12    1    3    3    0    0  0.31613731422E+02  0.13361972318E+02  0.90030530951E+02  0.96350748944E+02  0.00000000000E+00 0.  1.
       21    1    1    2  502  501  0.12632997238E+02 -0.19188986409E+02  0.16723631021E+04  0.16725208983E+04  0.00000000000E+00 0. -1.
</event>
<event>
 5   1  0.6181100E+00  0.8091025E+02  0.7957747E-01  0.1325136E+00
        3   -1    0    0  501    0  0.00000000000E+00  0.00000000000E+00  0.83314241955E+01  0.83314241955E+01  0.00000000000E+00 0. -1.
       -4   -1    0    0    0  501  0.00000000000E+00  0.00000000000E+00 -0.19643904534E+03  0.19643904534E+03  0.00000000000E+00 0.  1.
      -24    2    1    2    0    0  0.00000000000E+00  0.00000000000E+00 -0.18810762115E+03  0.20477046954E+03  0.80910246948E+02 0.  0.
       11    1    3    3    0    0 -0.34293807168E+02  0.14019015380E+02 -0.52931131446E+02  0.64608843655E+02  0.00000000000E+00 0. -1.
      -12    1    3    3    0    0  0.34293807168E+02 -0.14019015380E+02 -0.13517648970E+03  0.14016162588E+03  0.00000000000E+00 0.  1.
</event>
<event>
 5   1  0.6181100E+00  0.8051419E+02  0.7957747E-01  0.1326188E+00
       -2   -1    0    0    0  501  0.00000000000E+00  0.00000000000E+00  0.36012809147E+02  0.36012809147E+02  0.00000000000E+00 0.  1.
        1   -1    0    0  501    0  0.00000000000E+00  0.00000000000E+00 -0.45001593685E+02  0.45001593685E+02  0.00000000000E+00 0. -1.
      -24    2    1    2    0    0  0.00000000000E+00  0.00000000000E+00 -0.89887845378E+01  0.81014402832E+02  0.80514192655E+02 0.  0.
       11    1    3    3    0    0  0.35245449725E+02  0.15244954334E+02 -0.16651817234E+02  0.41856103213E+02  0.00000000000E+00 0. -1.
      -12    1    3    3    0    0 -0.35245449725E+02 -0.15244954334E+02  0.76630326957E+01  0.39158299619E+02  0.00000000000E+00 0.  1.
</event>
<event>
 5   1  0.6181100E+00  0.8081879E+02  0.7957747E-01  0.1325379E+00
       -4   -1    0    0    0  501  0.00000000000E+00  0.00000000000E+00  0.21635040571E+03  0.21635040571E+03  0.00000000000E+00 0.  1.
        3   -1    0    0  501    0  0.00000000000E+00  0.00000000000E+00 -0.75475664728E+01  0.75475664728E+01  0.00000000000E+00 0. -1.
      -24    2    1    2    0    0  0.00000000000E+00  0.00000000000E+00  0.20880283923E+03  0.22389797218E+03  0.80818786640E+02 0.  0.
       11    1    3    3    0    0 -0.35869404946E+02  0.16704465879E+02  0.81680045479E+02  0.90759480061E+02  0.00000000000E+00 0. -1.
      -12    1    3    3    0    0  0.35869404946E+02 -0.16704465879E+02  0.12712279375E+03  0.13313849212E+03  0.00000000000E+00 0.  1.
</event>
<event>
 5   1  0.6181100E+00  0.8029365E+02  0.7957747E-01  0.1326777E+00
       -4   -1    0    0    0  501  0.00000000000E+00  0.00000000000E+00  0.31983331469E+02  0.31983331469E+02  0.00000000000E+00 0.  1.
        3   -1    0    0  501    0  0.00000000000E+00  0.00000000000E+00 -0.50393985005E+02  0.50393985005E+02  0.00000000000E+00 0. -1.
      -24    2    1    2    0    0  0.00000000000E+00  0.00000000000E+00 -0.18410653536E+02  0.82377316474E+02  0.80293649225E+02 0.  0.
       11    1    3    3    0    0  0.29366568006E+01 -0.33080217324E+02 -0.32348252339E+02  0.46360911992E+02  0.00000000000E+00 0. -1.
      -12    1    3    3    0    0 -0.29366568006E+01  0.33080217324E+02  0.13937598804E+02  0.36016404481E+02  0.00000000000E+00 0.  1.
</event>
<event>
 5   2  0.6181100E+00  0.1154664E+03  0.7957747E-01  0.1253079E+00
        3   -1    0    0  502    0  0.00000000000E+00  0.00000000000E+00  0.76096593636E+01  0.76096593636E+01  0.00000000000E+00 0. -1.
       -4   -1    0    0    0  501  0.00000000000E+00  0.00000000000E+00 -0.67941458332E+03  0.67941458332E+03  0.00000000000E+00 0.  1.
       11    1    1    2    0    0 -0.94276978601E+01  0.55116365450E+02 -0.23015547896E+03  0.23685066967E+03  0.00000000000E+00 0. -1.
      -12    1    1    2    0    0  0.35734390765E+02 -0.45819024541E+02 -0.33093791301E+03  0.33600034518E+03  0.00000000000E+00 0.  1.
       21    1    1    2  502  501 -0.26306692904E+02 -0.92973409082E+01 -0.11071153198E+03  0.11417322783E+03  0.00000000000E+00 0. -1.
</event>
<event>
 5   1  0.6181100E+00  0.8166129E+02  0.7957747E-01  0.1323159E+00
       -4   -1    0    0    0  501  0.00000000000E+00  0.00000000000E+00  0.15054717563E+03  0.15054717563E+03  0.00000000000E+00 0.  1.
        3   -1    0    0  501    0  0.00000000000E+00  0.00000000000E+00 -0.11073881948E+02  0.11073881948E+02  0.00000000000E+00 0. -1.
      -24    2    1    2    0    0  0.00000000000E+00  0.00000000000E+00  0.13947329368E+03  0.16162105757E+03  0.81661291943E+02 0.  0.
       11    1    3    3    0    0  0.50929294161E+01 -0.27956825664E+02  0.11709013633E+02  0.30734720293E+02  0.00000000000E+00 0. -1.
      -12    1    3    3    0    0 -0.50929294161E+01  0.27956825664E+02  0.12776428005E+03  0.13088633728E+03  0.00000000000E+00 0.  1.
</event>
<event>
 4   3  0.6181100E+00  0.1824916E+03  0.7957747E-01  0.1171118E+00
       21   -1    0    0  501  502  0.00000000000E+00  0.00000000000E+00  0.49394363194E+03  0.49394363194E+03  0.00000000000E+00 0.  1.
       21   -1    0    0  502  503  0.00000000000E+00  0.00000000000E+00 -0.70190636819E+02  0.70190636819E+02  0.00000000000E+00 0.  1.
        6    1    1    2  501    0 -0.73238865360E+01 -0.57624042123E+02  0.26788657413E+03  0.32413945478E+03  0.17300000000E+03 0.  1.
       -6    1    1    2    0  503  0.73238865360E+01  0.57624042123E+02  0.15586642099E+03  0.23999481398E+03  0.17300000000E+03 0.  1.
</event>
<event>
 5   1  0.6181100E+00  0.8012202E+02  0.7957747E-01  0.1327237E+00
       -2   -1    0    0    0  501  0.00000000000E+00  0.00000000000E+00  0.35300096260E+02  0.35300096260E+02  0.00000000000E+00 0.  1.
        1   -1    0    0  501    0  0.00000000000E+00  0.00000000000E+00 -0.45464031798E+02  0.45464031798E+02  0.00000000000E+00 0. -1.
      -24    2    1    2    0    0  0.00000000000E+00  0.00000000000E+00 -0.10163935538E+02  0.80764128059E+02  0.80122024409E+02 0.  0.
       11    1    3    3    0    0 -0.18789135701E+02  0.21893598837E+02 -0.33099018649E+02  0.43907930103E+02  0.00000000000E+00 0. -1.
      -12    1    3    3    0    0  0.18789135701E+02 -0.21893598837E+02  0.22935083112E+02  0.36856197956E+02  0.00000000000E+00 0.  1.
</event>
<event>
 5   1  0.6181100E+00  0.8047867E+02  0.7957747E-01  0.1326283E+00
        1   -1    0    0  501    0  0.00000000000E+00  0.00000000000E+00  0.22208743215E+01  0.22208743215E+01  0.00000000000E+00 0. -1.
       -2   -1    0    0    0  501  0.00000000000E+00  0.00000000000E+00 -0.72908409454E+03  0.72908409454E+03  0.00000000000E+00 0.  1.
      -24    2    1    2    0    0  0.00000000000E+00  0.00000000000E+00 -0.72686322021E+03  0.73130496886E+03  0.80478671553E+02 0.  0.
       11    1    3    3    0    0 -0.67364575227E+01  0.12556148234E+02 -0.21471832820E+02  0.25769678366E+02  0.00000000000E+00 0. -1.
      -12    1    3    3    0    0  0.67364575227E+01 -0.12556148234E+02 -0.70539138739E+03  0.70553529049E+03  0.00000000000E+00 0.  1.
</event>
<event>
 6   2  0.6181100E+00  0.8417824E+02  0.7957747E-01  0.1316706E+00
       21   -1    0    0  501  502  0.00000000000E+00  0.00000000000E+00  0.27061980492E+02  0.27061980492E+02  0.00000000000E+00 0.  1.
        1   -1    0    0  502    0  0.00000000000E+00  0.00000000000E+00 -0.18894783971E+03  0.18894783971E+03  0.00000000000E+00 0. -1.
      -24    2    1    2    0    0  0.14194472286E+02 -0.22721439315E+02 -0.16855109208E+03  0.18840235423E+03  0.79801187910E+02 0.  0.
       11    1    3    3    0    0 -0.27300918499E+02 -0.38197198203E+01 -0.11408977829E+03  0.11737294374E+03  0.00000000000E+00 0. -1.
      -12    1    3    3    0    0  0.41495390785E+02 -0.18901719495E+02 -0.54461313784E+02  0.71029410495E+02  0.00000000000E+00 0.  1.
        2    1    1    2  501    0 -0.14194472286E+02  0.22721439315E+02  0.66652328619E+01  0.27607465967E+02  0.00000000000E+00 0. -1.
</event>
<event>
 5   1  0.6181100E+00  0.8025931E+02  0.7957747E-01  0.1326869E+00
        1   -1    0    0  501    0  0.00000000000E+00  0.00000000000E+00  0.62028887606E+02  0.62028887606E+02  0.00000000000E+00 0. -1.
       -2   -1    0    0    0  501  0.00000000000E+00  0.00000000000E+00 -0.25961920009E+02  0.25961920009E+02  0.00000000000E+00 0.  1.
      -24    2    1    2    0    0  0.00000000000E+00  0.00000000000E+00  0.36066967596E+02  0.87990807615E+02  0.80259305212E+02 0.  0.
       11    1    3    3    0    0  0.87941528501E+01 -0.36469733288E+02  0.33654205772E+02  0.50398255293E+02  0.00000000000E+00 0. -1.
      -12    1    3    3    0    0 -0.87941528501E+01  0.36469733288E+02  0.24127618241E+01  0.37592552322E+02  0.00000000000E+00 0.  1.
</event>
<event>
 5   1  0.6181100E+00  0.7845817E+02  0.7957747E-01  0.1331763E+00
        3   -1    0    0  501    0  0.00000000000E+00  0.00000000000E+00  0.47118834879E+02  0.47118834879E+02  0.00000000000E+00 0. -1.
       -4   -1    0    0    0  501  0.00000000000E+00  0.00000000000E+00 -0.32660419848E+02  0.32660419848E+02  0.00000000000E+00 0.  1.
      -24    2    1    2    0    0  0.00000000000E+00  0.00000000000E+00  0.14458415032E+02  0.79779254727E+02  0.78458165411E+02 0.  0.
       11    1    3    3    0    0 -0.23985522617E+02 -0.55238679003E+01  0.38290284277E+02  0.45518834363E+02  0.00000000000E+00 0. -1.
      -12    1    3    3    0    0  0.23985522617E+02  0.55238679003E+01 -0.23831869246E+02  0.34260420364E+02  0.00000000000E+00 0.  1.
</event>
<event>
 5   1  0.6181100E+00  0.8348463E+02  0.7957747E-01  0.1318459E+00
        3   -1    0    0  501    0  0.00000000000E+00  0.00000000000E+00  0.31520666535E+01  0.31520666535E+01  0.00000000000E+00 0. -1.
       -4   -1    0    0    0  501  0.00000000000E+00  0.00000000000E+00 -0.55278679776E+03  0.55278679776E+03  0.00000000000E+00 0.  1.
      -24    2    1    2    0    0  0.00000000000E+00  0.00000000000E+00 -0.54963473110E+03  0.55593886441E+03  0.83484629285E+02 0.  0.
       11    1    3    3    0    0 -0.21939004786E+02  0.31835052620E+02 -0.17002674148E+03  0.17436709358E+03  0.00000000000E+00 0. -1.
      -12    1    3    3    0    0  0.21939004786E+02 -0.31835052620E+02 -0.37960798962E+03  0.38157177083E+03  0.00000000000E+00 0.  1.
</event>
<event>
 6   2  0.6181100E+00  0.9786586E+02  0.7957747E-01  0.1285588E+00
        1   -1    0    0  502    0  0.00000000000E+00  0.00000000000E+00  0.31159756676E+02  0.31159756676E+02  0.00000000000E+00 0. -1.
       21   -1    0    0  501  502  0.00000000000E+00  0.00000000000E+00 -0.22141916062E+03  0.22141916062E+03  0.00000000000E+00 0. -1.
      -24    2    1    2    0    0 -0.55426350892E+02  0.32727155298E+00 -0.16460887020E+03  0.19150406682E+03  0.80656927650E+02 0.  0.
       11    1    3    3    0    0 -0.65461300942E+02 -0.28930833196E+00 -0.16846456872E+03  0.18073620703E+03  0.00000000000E+00 0. -1.
      -12    1    3    3    0    0  0.10034950050E+02  0.61657988494E+00  0.38556985135E+01  0.10767859782E+02  0.00000000000E+00 0.  1.
        2    1    1    2  501    0  0.55426350892E+02 -0.32727155298E+00 -0.25650533739E+02  0.61074850478E+02  0.00000000000E+00 0. -1.
</event>
<event>
 4   3  0.6181100E+00  0.2283260E+03  0.7957747E-01  0.1134783E+00
       -1   -1    0    0    0  501  0.00000000000E+00  0.00000000000E+00  0.16147949171E+03  0.16147949171E+03  0.00000000000E+00 0. -1.
        1   -1    0    0  502    0  0.00000000000E+00  0.00000000000E+00 -0.46521020045E+03  0.46521020045E+03  0.00000000000E+00 0.  1.
        6    1    1    2  502    0 -0.87638683914E+02 -0.12051235419E+03 -0.32520608378E+03  0.39735596555E+03  0.17300000000E+03 0.  1.
       -6    1    1    2    0  501  0.87638683914E+02  0.12051235419E+03  0.21475375040E+02  0.22933372662E+03  0.17300000000E+03 0. -1.
</event>
<event>
 4   3  0.6181100E+00  0.3671799E+03  0.7957747E-01  0.1064743E+00
       21   -1    0    0  503  502  0.00000000000E+00  0.00000000000E+00  0.12164939543E+04  0.12164939543E+04  0.00000000000E+00 0.  1.
       21   -1    0    0  501  503  0.00000000000E+00  0.00000000000E+00 -0.13731880187E+03  0.13731880187E+03  0.00000000000E+00 0. -1.
        6    1    1    2  501    0 -0.12561444969E+03 -0.29851813195E+03  0.24227402380E+03  0.43990654426E+03  0.17300000000E+03 0. -1.
       -6    1    1    2    0  502  0.12561444969E+03  0.29851813195E+03  0.83690112861E+03  0.91390621190E+03  0.17300000000E+03 0.  1.
</event>
<event>
 6   2  0.6181100E+00  0.8397690E+02  0.7957747E-01  0.1317213E+00
       21   -1    0    0  501  502  0.00000000000E+00  0.00000000000E+00  0.49542847953E+03  0.49542847953E+03  0.00000000000E+00 0. -1.
        3   -1    0    0  502    0  0.00000000000E+00  0.00000000000E+00 -0.11648601406E+02  0.11648601406E+02  0.00000000000E+00 0. -1.
      -24    2    1    2    0    0 -0.47343416340E+00  0.36021882012E+02  0.15463149981E+03  0.17596312008E+03  0.75857226240E+02 0.  0.
       11    1    3    3    0    0  0.37882867793E+01  0.49425784344E+02  0.50061644609E+02  0.70451597113E+02  0.00000000000E+00 0. -1.
      -12    1    3    3    0    0 -0.42617209427E+01 -0.13403902332E+02  0.10456985520E+03  0.10551152297E+03  0.00000000000E+00 0.  1.
        4    1    1    2  501    0  0.47343416340E+00 -0.36021882012E+02  0.32914837832E+03  0.33111396085E+03  0.00000000000E+00 0. -1.
</event>
<event>
 6   2  0.6181100E+00  0.8328768E+02  0.7957747E-01  0.1318960E+00
       21   -1    0    0  501  502  0.00000000000E+00  0.00000000000E+00  0.79909850226E+01  0.79909850226E+01  0.00000000000E+00 0. -1.
       -2   -1    0    0    0  501  0.00000000000E+00  0.00000000000E+00 -0.35366984045E+03  0.35366984045E+03  0.00000000000E+00 0.  1.
      -24    2    1    2    0    0 -0.10793738887E+02  0.17808080151E+02 -0.30196173511E+03  0.31323749301E+03  0.80642451846E+02 0.  0.
       11    1    3    3    0    0 -0.38276356539E+02 -0.78029344809E+01 -0.92129133152E+02  0.10006868857E+03  0.00000000000E+00 0. -1.
      -12    1    3    3    0    0  0.27482617651E+02  0.25611014631E+02 -0.20983260196E+03  0.21316880445E+03  0.00000000000E+00 0.  1.
       -1    1    1    2    0  502  0.10793738887E+02 -0.17808080151E+02 -0.43717120319E+02  0.48423332463E+02  0.00000000000E+00 0.  1.
</event>
<event>
 5   1  0.6181100E+00  0.7946759E+02  0.7957747E-01  0.1329002E+00
        1   -1    0    0  501    0  0.00000000000E+00  0.00000000000E+00  0.77795169742E+02  0.77795169742E+02  0.00000000000E+00 0. -1.
       -2   -1    0    0    0  501  0.00000000000E+00  0.00000000000E+00 -0.20293991796E+02  0.20293991796E+02  0.00000000000E+00 0.  1.
      -24    2    1    2    0    0  0.00000000000E+00  0.00000000000E+00  0.57501177945E+02  0.98089161538E+02  0.79467591798E+02 0.  0.
       11    1    3    3    0    0  0.13815250528E+02 -0.36788387434E+02  0.36003565973E+02  0.53296372859E+02  0.00000000000E+00 0. -1.
      -12    1    3    3    0    0 -0.13815250528E+02  0.36788387434E+02  0.21497611972E+02  0.44792788679E+02  0.00000000000E+00 0.  1.
</event>
<event>
 5   1  0.6181100E+00  0.8290287E+02  0.7957747E-01  0.1319944E+00
        1   -1    0    0  501    0  0.00000000000E+00  0.00000000000E+00  0.13536428507E+02  0.13536428507E+02  0.00000000000E+00 0. -1.
       -2   -1    0    0    0  501  0.00000000000E+00  0.00000000000E+00 -0.12693313176E+03  0.12693313176E+03  0.00000000000E+00 0.  1.
      -24    2    1    2    0    0  0.00000000000E+00  0.00000000000E+00 -0.11339670325E+03  0.14046956027E+03  0.82902865168E+02 0.  0.
       11    1    3    3    0    0 -0.92943373884E+01  0.40337757742E+02 -0.60372420982E+02  0.73200741952E+02  0.00000000000E+00 0. -1.
      -12    1    3    3    0    0  0.92943373884E+01 -0.40337757742E+02 -0.53024282273E+02  0.67268818316E+02  0.00000000000E+00 0.  1.
</event>
<event>
 5   1  0.6181100E+00  0.8195992E+02  0.7957747E-01  0.1322380E+00
        1   -1    0    0  501    0  0.00000000000E+00  0.00000000000E+00  0.45135293168E+01  0.45135293168E+01  0.00000000000E+00 0. -1.
       -2   -1    0    0    0  501  0.00000000000E+00  0.00000000000E+00 -0.37207185745E+03  0.37207185745E+03  0.00000000000E+00 0.  1.
      -24    2    1    2    0    0  0.00000000000E+00  0.00000000000E+00 -0.36755832813E+03  0.37658538677E+03  0.81959922805E+02 0.  0.
       11    1    3    3    0    0 -0.77579754193E+01 -0.10902301736E+02 -0.58068076309E+01  0.14586479377E+02  0.00000000000E+00 0. -1.
      -12    1    3    3    0    0  0.77579754193E+01  0.10902301736E+02 -0.36175152050E+03  0.36199890739E+03  0.00000000000E+00 0.  1.
</event>
<event>
 5   1  0.6181100E+00  0.8052766E+02  0.7957747E-01  0.1326153E+00
        1   -1    0    0  501    0  0.00000000000E+00  0.00000000000E+00  0.13877673760E+03  0.13877673760E+03  0.00000000000E+00 0. -1.
       -2   -1    0    0    0  501  0.00000000000E+00  0.00000000000E+00 -0.11681900068E+02  0.11681900068E+02  0.00000000000E+00 0.  1.
      -24    2    1    2    0    0  0.00000000000E+00  0.00000000000E+00  0.12709483753E+03  0.15045863767E+03  0.80527659356E+02 0.  0.
       11    1    3    3    0    0  0.79052528937E+01  0.31712268255E+02  0.19609396505E+02  0.38114162885E+02  0.00000000000E+00 0. -1.
      -12    1    3    3    0    0 -0.79052528937E+01 -0.31712268255E+02  0.10748544103E+03  0.11234447478E+03  0.00000000000E+00 0.  1.
</event>
<event>
 6   2  0.6181100E+00  0.8809078E+02  0.7957747E-01  0.1307165E+00
        3   -1    0    0  502    0  0.00000000000E+00  0.00000000000E+00  0.16467229976E+03  0.16467229976E+03  0.00000000000E+00 0. -1.
       21   -1    0    0  501  502  0.00000000000E+00  0.00000000000E+00 -0.18006875023E+02  0.18006875023E+02  0.00000000000E+00 0.  1.
      -24    2    1    2    0    0  0.32883696859E+01  0.20315900868E+02  0.11396769265E+03  0.14404381680E+03  0.85653003365E+02 0.  0.
       11    1    3    3    0    0 -0.28475672305E+02 -0.58386907134E+00  0.99276425655E+02  0.10328123502E+03  0.00000000000E+00 0. -1.
      -12    1    3    3    0    0  0.31764041991E+02  0.20899769940E+02  0.14691266997E+02  0.40762581777E+02  0.00000000000E+00 0.  1.
        4    1    1    2  501    0 -0.32883696859E+01 -0.20315900868E+02  0.32697732085E+02  0.38635357987E+02  0.00000000000E+00 0. -1.
</event>
<event>
 5   1  0.6181100E+00  0.8159549E+02  0.7957747E-01  0.1323332E+00
       -2   -1    0    0    0  501  0.00000000000E+00  0.00000000000E+00  0.24175424998E+02  0.24175424998E+02  0.00000000000E+00 0.  1.
        1   -1    0    0  501    0  0.00000000000E+00  0.00000000000E+00 -0.68849082691E+02  0.68849082691E+02  0.00000000000E+00 0. -1.
      -24    2    1    2    0    0  0.00000000000E+00  0.00000000000E+00 -0.44673657694E+02  0.93024507689E+02  0.81595486021E+02 0.  0.
       11    1    3    3    0    0  0.12234711220E+02  0.13695457030E+02 -0.63870448561E+02  0.66458166550E+02  0.00000000000E+00 0. -1.
      -12    1    3    3    0    0 -0.12234711220E+02 -0.13695457030E+02  0.19196790867E+02  0.26566341138E+02  0.00000000000E+00 0.  1.
</event>
<event>
 5   1  0.6181100E+00  0.8397047E+02  0.7957747E-01  0.1317229E+00
       -2   -1    0    0    0  501  0.00000000000E+00  0.00000000000E+00  0.73849351286E+02  0.73849351286E+02  0.00000000000E+00 0.  1.
        1   -1    0    0  501    0  0.00000000000E+00  0.00000000000E+00 -0.23869674038E+02  0.23869674038E+02  0.00000000000E+00 0. -1.
      -24    2    1    2    0    0  0.00000000000E+00  0.00000000000E+00  0.49979677247E+02  0.97719025324E+02  0.83970469645E+02 0.  0.
       11    1    3    3    0    0 -0.57107679361E+01  0.11640703563E+02 -0.21481375601E+02  0.25091200600E+02  0.00000000000E+00 0. -1.
      -12    1    3    3    0    0  0.57107679361E+01 -0.11640703563E+02  0.71461052848E+02  0.72627824723E+02  0.00000000000E+00 0.  1.
</event>
<event>
 5   1  0.6181100E+00  0.8109925E+02  0.7957747E-01  0.1324636E+00
       -4   -1    0    0    0  501  0.00000000000E+00  0.00000000000E+00  0.98969470036E+03  0.98969470036E+03  0.00000000000E+00 0.  1.
        3   -1    0    0  501    0  0.00000000000E+00  0.00000000000E+00 -0.16613930735E+01  0.16613930735E+01  0.00000000000E+00 0. -1.
      -24    2    1    2    0    0  0.00000000000E+00  0.00000000000E+00  0.98803330728E+03  0.99135609343E+03  0.81099245866E+02 0.  0.
       11    1    3    3    0    0 -0.11832343911E+02 -0.11933957475E+02  0.42912093022E+02  0.46085479611E+02  0.00000000000E+00 0. -1.
      -12    1    3    3    0    0  0.11832343911E+02  0.11933957475E+02  0.94512121426E+03  0.94527061382E+03  0.00000000000E+00 0.  1.
</event>
<event>
 5   1  0.6181100E+00  0.8149010E+02  0.7957747E-01  0.1323608E+00
       -4   -1    0    0    0  501  0.00000000000E+00  0.00000000000E+00  0.49449650034E+02  0.49449650034E+02  0.00000000000E+00 0.  1.
        3   -1    0    0  501    0  0.00000000000E+00  0.00000000000E+00 -0.33572718777E+02  0.33572718777E+02  0.00000000000E+00 0. -1.
      -24    2    1    2    0    0  0.00000000000E+00  0.00000000000E+00  0.15876931257E+02  0.83022368811E+02  0.81490102325E+02 0.  0.
       11    1    3    3    0    0 -0.18847977909E+02 -0.30059627287E+01 -0.28736707022E+02  0.34497542139E+02  0.00000000000E+00 0. -1.
      -12    1    3    3    0    0  0.18847977909E+02  0.30059627287E+01  0.44613638278E+02  0.48524826672E+02  0.00000000000E+00 0.  1.
</event>
<event>
 5   1  0.6181100E+00  0.8168070E+02  0.7957747E-01  0.1323109E+00
        3   -1    0    0  501    0  0.00000000000E+00  0.00000000000E+00  0.22662356170E+03  0.22662356170E+03  0.00000000000E+00 0. -1.
       -4   -1    0    0    0  501  0.00000000000E+00  0.00000000000E+00 -0.73599327239E+01  0.73599327239E+01  0.00000000000E+00 0.  1.
      -24    2    1    2    0    0  0.00000000000E+00  0.00000000000E+00  0.21926362898E+03  0.23398349443E+03  0.81680699502E+02 0.  0.
       11    1    3    3    0    0 -0.12457526725E+02  0.30047376307E+02  0.18037667061E+03  0.18328605538E+03  0.00000000000E+00 0. -1.
      -12    1    3    3    0    0  0.12457526725E+02 -0.30047376307E+02  0.38886958366E+02  0.50697439048E+02  0.00000000000E+00 0.  1.
</event>
<event>
 5   1  0.6181100E+00  0.7987271E+02  0.7957747E-01  0.1327907E+00
       -2   -1    0    0    0  501  0.00000000000E+00  0.00000000000E+00  0.46695941247E+02  0.46695941247E+02  0.00000000000E+00 0.  1.
        1   -1    0    0  501    0  0.00000000000E+00  0.00000000000E+00 -0.34155271546E+02  0.34155271546E+02  0.00000000000E+00 0. -1.
      -24    2    1    2    0    0  0.00000000000E+00  0.00000000000E+00  0.12540669701E+02  0.80851212793E+02  0.79872712571E+02 0.  0.
       11    1    3    3    0    0 -0.27179451016E+02 -0.15368162515E+02 -0.18934700093E+02  0.36516103903E+02  0.00000000000E+00 0. -1.
      -12    1    3    3    0    0  0.27179451016E+02  0.15368162515E+02  0.31475369794E+02  0.44335108890E+02  0.00000000000E+00 0.  1.
</event>
<event>
 5   1  0.6181100E+00  0.7739201E+02  0.7957747E-01  0.1334731E+00
        3   -1    0    0  501    0  0.00000000000E+00  0.00000000000E+00  0.44334716873E+02  0.44334716873E+02  0.00000000000E+00 0. -1.
       -4   -1    0    0    0  501  0.00000000000E+00  0.00000000000E+00 -0.33774452362E+02  0.33774452362E+02  0.00000000000E+00 0.  1.
      -24    2    1    2    0    0  0.00000000000E+00  0.00000000000E+00  0.10560264511E+02  0.78109169235E+02  0.77392009485E+02 0.  0.
       11    1    3    3    0    0 -0.25945322036E+02  0.24888927594E+02  0.19722251532E+02  0.41007141547E+02  0.00000000000E+00 0. -1.
      -12    1    3    3    0    0  0.25945322036E+02 -0.24888927594E+02 -0.91619870214E+01  0.37102027688E+02  0.00000000000E+00 0.  1.
</event>
<event>
 6   2  0.6181100E+00  0.8206641E+02  0.7957747E-01  0.1322103E+00
        1   -1    0    0  502    0  0.00000000000E+00  0.00000000000E+00  0.74094013376E+02  0.74094013376E+02  0.00000000000E+00 0. -1.
       21   -1    0    0  501  502  0.00000000000E+00  0.00000000000E+00 -0.16395213385E+03  0.16395213385E+03  0.00000000000E+00 0. -1.
      -24    2    1    2    0    0 -0.20432910850E+02  0.17599196105E+01  0.50393047947E+02  0.96303452860E+02  0.79462535754E+02 0.  0.
       11    1    3    3    0    0 -0.33652144549E+02 -0.23745952304E+02  0.53378136173E+02  0.67420786891E+02  0.00000000000E+00 0. -1.
      -12    1    3    3    0    0  0.13219233700E+02  0.25505871915E+02 -0.29850882264E+01  0.28882665969E+02  0.00000000000E+00 0.  1.
        2    1    1    2  501    0  0.20432910850E+02 -0.17599196105E+01 -0.14025116842E+03  0.14174269436E+03  0.00000000000E+00 0. -1.
</event>
<event>
 5   1  0.6181100E+00  0.8273689E+02  0.7957747E-01  0.1320370E+00
        3   -1    0    0  501    0  0.00000000000E+00  0.00000000000E+00  0.90745417805E+01  0.90745417805E+01  0.00000000000E+00 0. -1.
       -4   -1    0    0    0  501  0.00000000000E+00  0.00000000000E+00 -0.18858782501E+03  0.18858782501E+03  0.00000000000E+00 0.  1.
      -24    2    1    2    0    0  0.00000000000E+00  0.00000000000E+00 -0.17951328323E+03  0.19766236679E+03  0.82736886511E+02 0.  0.
       11    1    3    3    0    0 -0.13356610562E+02  0.18760448641E+02 -0.76555792633E+01  0.24268526382E+02  0.00000000000E+00 0. -1.
      -12    1    3    3    0    0  0.13356610562E+02 -0.18760448641E+02 -0.17185770397E+03  0.17339384041E+03  0.00000000000E+00 0.  1.
</event>
<event>
 5   1  0.6181100E+00  0.8301755E+02  0.7957747E-01  0.1319650E+00
        1   -1    0    0  501    0  0.00000000000E+00  0.00000000000E+00  0.57044919266E+03  0.57044919266E+03  0.00000000000E+00 0. -1.
       -2   -1    0    0    0  501  0.00000000000E+00  0.00000000000E+00 -0.30203888349E+01  0.30203888349E+01  0.00000000000E+00 0.  1.
      -24    2    1    2    0    0  0.00000000000E+00  0.00000000000E+00  0.56742880382E+03  0.57346958149E+03  0.83017549287E+02 0.  0.
       11    1    3    3    0    0 -0.30610129645E+02 -0.27365055680E+02  0.24160956920E+03  0.24507347927E+03  0.00000000000E+00 0. -1.
      -12    1    3    3    0    0  0.30610129645E+02  0.27365055680E+02  0.32581923462E+03  0.32839610223E+03  0.00000000000E+00 0.  1.
</event>
<event>
 5   1  0.6181100E+00  0.7867133E+02  0.7957747E-01  0.1331176E+00
       -2   -1    0    0    0  501  0.00000000000E+00  0.00000000000E+00  0.20107520332E+02  0.20107520332E+02  0.00000000000E+00 0.  1.
        1   -1    0    0  501    0  0.00000000000E+00  0.00000000000E+00 -0.76951042856E+02  0.76951042856E+02  0.00000000000E+00 0. -1.
      -24    2    1    2    0    0  0.00000000000E+00  0.00000000000E+00 -0.56843522523E+02  0.97058563188E+02  0.78671332995E+02 0.  0.
       11    1    3    3    0    0 -0.25640283297E+01  0.18531675213E+02 -0.71110996481E+02  0.73530748997E+02  0.00000000000E+00 0. -1.
      -12    1    3    3    0    0  0.25640283297E+01 -0.18531675213E+02  0.14267473958E+02  0.23527814191E+02  0.00000000000E+00 0.  1.
</event>
<event>
 5   1  0.6181100E+00  0.7988214E+02  0.7957747E-01  0.1327882E+00
        1   -1    0    0  501    0  0.00000000000E+00  0.00000000000E+00  0.14623381206E+03  0.14623381206E+03  0.00000000000E+00 0. -1.
       -2   -1    0    0    0  501  0.00000000000E+00  0.00000000000E+00 -0.10909166912E+02  0.10909166912E+02  0.00000000000E+00 0.  1.
      -24    2    1    2    0    0  0.00000000000E+00  0.00000000000E+00  0.13532464515E+03  0.15714297897E+03  0.79882139782E+02 0.  0.
       11    1    3    3    0    0 -0.13944404262E+02  0.28241788932E+02  0.11597841484E+03  0.12017919021E+03  0.00000000000E+00 0. -1.
      -12    1    3    3    0    0  0.13944404262E+02 -0.28241788932E+02  0.19346230314E+02  0.36963788762E+02  0.00000000000E+00 0.  1.
</event>
<event>
 5   1  0.6181100E+00  0.8058011E+02  0.7957747E-01  0.1326013E+00
        1   -1    0    0  501    0  0.00000000000E+00  0.00000000000E+00  0.49484883509E+02  0.49484883509E+02  0.00000000000E+00 0. -1.
       -2   -1    0    0    0  501  0.00000000000E+00  0.00000000000E+00 -0.32803726046E+02  0.32803726046E+02  0.00000000000E+00 0.  1.
      -24    2    1    2    0    0  0.00000000000E+00  0.00000000000E+00  0.16681157462E+02  0.82288609555E+02  0.80580110748E+02 0.  0.
       11    1    3    3    0    0  0.17249822596E+02 -0.36075788816E+02  0.13371454174E+02  0.42164140037E+02  0.00000000000E+00 0. -1.
      -12    1    3    3    0    0 -0.17249822596E+02  0.36075788816E+02  0.33097032880E+01  0.40124469519E+02  0.00000000000E+00 0.  1.
</event>
<event>
 5   1  0.6181100E+00  0.7882079E+02  0.7957747E-01  0.1330766E+00
        1   -1    0    0  501    0  0.00000000000E+00  0.00000000000E+00  0.30846992899E+01  0.30846992899E+01  0.00000000000E+00 0. -1.
       -2   -1    0    0    0  501  0.00000000000E+00  0.00000000000E+00 -0.50351079924E+03  0.50351079924E+03  0.00000000000E+00 0.  1.
      -24    2    1    2    0    0  0.00000000000E+00  0.00000000000E+00 -0.50042609995E+03  0.50659549853E+03  0.78820794335E+02 0.  0.
       11    1    3    3    0    0  0.29253103203E+02  0.77325974308E+01 -0.87916578718E+02  0.92977749616E+02  0.00000000000E+00 0. -1.
      -12    1    3    3    0    0 -0.29253103203E+02 -0.77325974308E+01 -0.41250952123E+03  0.41361774891E+03  0.00000000000E+00 0.  1.
</event>
<event>
 5   1  0.6181100E+00  0.8076971E+02  0.7957747E-01  0.1325509E+00
        3   -1    0    0  501    0  0.00000000000E+00  0.00000000000E+00  0.19386812022E+02  0.19386812022E+02  0.00000000000E+00 0. -1.
       -4   -1    0    0    0  501  0.00000000000E+00  0.00000000000E+00 -0.84126088285E+02  0.84126088285E+02  0.00000000000E+00 0.  1.
      -24    2    1    2    0    0  0.00000000000E+00  0.00000000000E+00 -0.64739276263E+02  0.10351290031E+03  0.80769713624E+02 0.  0.
       11    1    3    3    0    0  0.96264772389E+01  0.32994294498E+02 -0.51939596076E+01  0.34760174768E+02  0.00000000000E+00 0. -1.
      -12    1    3    3    0    0 -0.96264772389E+01 -0.32994294498E+02 -0.59545316655E+02  0.68752725539E+02  0.00000000000E+00 0.  1.
</event>
<event>
 5   1  0.6181100E+00  0.7978813E+02  0.7957747E-01  0.1328135E+00
       -2   -1    0    0    0  501  0.00000000000E+00  0.00000000000E+00  0.21421672685E+03  0.21421672685E+03  0.00000000000E+00 0.  1.
        1   -1    0    0  501    0  0.00000000000E+00  0.00000000000E+00 -0.74295623767E+01  0.74295623767E+01  0.00000000000E+00 0. -1.
      -24    2    1    2    0    0  0.00000000000E+00  0.00000000000E+00  0.20678716447E+03  0.22164628923E+03  0.79788132808E+02 0.  0.
       11    1    3    3    0    0  0.24263988984E+02 -0.17780395582E+02  0.30600385156E+02  0.42909989515E+02  0.00000000000E+00 0. -1.
      -12    1    3    3    0    0 -0.24263988984E+02  0.17780395582E+02  0.17618677932E+03  0.17873629971E+03  0.00000000000E+00 0.  1.
</event>
<event>
 5   1  0.6181100E+00  0.8052685E+02  0.7957747E-01  0.1326155E+00
        3   -1    0    0  501    0  0.00000000000E+00  0.00000000000E+00  0.18176596241E+03  0.18176596241E+03  0.00000000000E+00 0. -1.
       -4   -1    0    0    0  501  0.00000000000E+00  0.00000000000E+00 -0.89188507270E+01  0.89188507270E+01  0.00000000000E+00 0.  1.
      -24    2    1    2    0    0  0.00000000000E+00  0.00000000000E+00  0.17284711168E+03  0.19068481314E+03  0.80526852317E+02 0.  0.
       11    1    3    3    0    0 -0.13545065520E+02 -0.34673946124E+02  0.12275405513E+03  0.12827435204E+03  0.00000000000E+00 0. -1.
      -12    1    3    3    0    0  0.13545065520E+02  0.34673946124E+02  0.50093056549E+02  0.62410461096E+02  0.00000000000E+00 0.  1.
</event>
<event>
 6   2  0.6181100E+00  0.9079829E+02  0.7957747E-01  0.1300884E+00
       21   -1    0    0  501  502  0.00000000000E+00  0.00000000000E+00  0.41432620363E+02  0.41432620363E+02  0.00000000000E+00 0.  1.
        1   -1    0    0  502    0  0.00000000000E+00  0.00000000000E+00 -0.11185393544E+03  0.11185393544E+03  0.00000000000E+00 0. -1.
      -24    2    1    2    0    0 -0.22370246741E+01  0.40861904550E+02 -0.29642344115E+02  0.95514382608E+02  0.81053249149E+02 0.  0.
       11    1    3    3    0    0  0.57839665643E-01  0.41547494774E+02 -0.55621056861E+02  0.69425497001E+02  0.00000000000E+00 0. -1.
      -12    1    3    3    0    0 -0.22948643398E+01 -0.68559022467E+00  0.25978712746E+02  0.26088885608E+02  0.00000000000E+00 0.  1.
        2    1    1    2  501    0  0.22370246741E+01 -0.40861904550E+02 -0.40778970961E+02  0.57772173193E+02  0.00000000000E+00 0. -1.
</event>
<event>
 6   2  0.6181100E+00  0.9880069E+02  0.7957747E-01  0.1283673E+00
        1   -1    0    0  502    0  0.00000000000E+00  0.00000000000E+00  0.23838530095E+03  0.23838530095E+03  0.00000000000E+00 0. -1.
       -2   -1    0    0    0  501  0.00000000000E+00  0.00000000000E+00 -0.28192532893E+02  0.28192532893E+02  0.00000000000E+00 0.  1.
      -24    2    1    2    0    0 -0.59779136329E+02  0.10310141369E+02  0.98719427060E+02  0.13966782672E+03  0.77985462659E+02 0.  0.
       11    1    3    3    0    0 -0.60680567002E+02 -0.68961406515E+01  0.10488378078E+03  0.12136842851E+03  0.00000000000E+00 0. -1.
      -12    1    3    3    0    0  0.90143067288E+00  0.17206282020E+02 -0.61643537182E+01  0.18299398214E+02  0.00000000000E+00 0.  1.
       21    1    1    2  502  501  0.59779136329E+02 -0.10310141369E+02  0.11147334100E+03  0.12691000712E+03  0.00000000000E+00 0. -1.
</event>
<event>
 5   1  0.6181100E+00  0.8140017E+02  0.7957747E-01  0.1323844E+00
       -4   -1    0    0    0  501  0.00000000000E+00  0.00000000000E+00  0.84366317292E+02  0.84366317292E+02  0.00000000000E+00 0.  1.
        3   -1    0    0  501    0  0.00000000000E+00  0.00000000000E+00 -0.19634578140E+02  0.19634578140E+02  0.00000000000E+00 0. -1.
      -24    2    1    2    0    0  0.00000000000E+00  0.00000000000E+00  0.64731739151E+02  0.10400089543E+03  0.81400173200E+02 0.  0.
       11    1    3    3    0    0  0.19619782310E+02  0.35462366213E+02  0.37143283674E+02  0.54973982914E+02  0.00000000000E+00 0. -1.
      -12    1    3    3    0    0 -0.19619782310E+02 -0.35462366213E+02  0.27588455477E+02  0.49026912517E+02  0.00000000000E+00 0.  1.
</event>
<event>
 5   1  0.6181100E+00  0.8016450E+02  0.7957747E-01  0.1327123E+00
       -2   -1    0    0    0  501  0.00000000000E+00  0.00000000000E+00  0.23792214665E+03  0.23792214665E+03  0.00000000000E+00 0.  1.
        1   -1    0    0  501    0  0.00000000000E+00  0.00000000000E+00 -0.67525727663E+01  0.67525727663E+01  0.00000000000E+00 0. -1.
      -24    2    1    2    0    0  0.00000000000E+00  0.00000000000E+00  0.23116957388E+03  0.24467471941E+03  0.80164496080E+02 0.  0.
       11    1    3    3    0    0 -0.18970142625E+02  0.86388390308E+01  0.11091677553E+02  0.23611886031E+02  0.00000000000E+00 0. -1.
      -12    1    3    3    0    0  0.18970142625E+02 -0.86388390308E+01  0.22007789633E+03  0.22106283338E+03  0.00000000000E+00 0.  1.
</event>
<event>
 5   1  0.6181100E+00  0.8069351E+02  0.7957747E-01  0.1325711E+00
       -2   -1    0    0    0  501  0.00000000000E+00  0.00000000000E+00  0.34603185491E+02  0.34603185491E+02  0.00000000000E+00 0.  1.
        1   -1    0    0  501    0  0.00000000000E+00  0.00000000000E+00 -0.47043661929E+02  0.47043661929E+02  0.00000000000E+00 0. -1.
      -24    2    1    2    0    0  0.00000000000E+00  0.00000000000E+00 -0.12440476438E+02  0.81646847420E+02  0.80693508039E+02 0.  0.
       11    1    3    3    0    0 -0.13866024884E+02 -0.36167976532E+02 -0.17643948502E+02  0.42564046932E+02  0.00000000000E+00 0. -1.
      -12    1    3    3    0    0  0.13866024884E+02  0.36167976532E+02  0.52034720643E+01  0.39082800488E+02  0.00000000000E+00 0.  1.
</event>
<event>
 5   1  0.6181100E+00  0.8229321E+02  0.7957747E-01  0.1321515E+00
       -2   -1    0    0    0  501  0.00000000000E+00  0.00000000000E+00  0.18339188620E+03  0.18339188620E+03  0.00000000000E+00 0.  1.
        1   -1    0    0  501    0  0.00000000000E+00  0.00000000000E+00 -0.92318327299E+01  0.92318327299E+01  0.00000000000E+00 0. -1.
      -24    2    1    2    0    0  0.00000000000E+00  0.00000000000E+00  0.17416005347E+03  0.19262371893E+03  0.82293212781E+02 0.  0.
       11    1    3    3    0    0  0.32120359688E+02 -0.22254544038E+02  0.56916678736E+02  0.69039775167E+02  0.00000000000E+00 0. -1.
      -12    1    3    3    0    0 -0.32120359688E+02  0.22254544038E+02  0.11724337474E+03  0.12358394376E+03  0.00000000000E+00 0.  1.
</event>
<event>
 6   2  0.6181100E+00  0.7130270E+02  0.7957747E-01  0.1352786E+00
        3   -1    0    0  502    0  0.00000000000E+00  0.00000000000E+00  0.15179483673E+03  0.15179483673E+03  0.00000000000E+00 0. -1.
       21   -1    0    0  501  502  0.00000000000E+00  0.00000000000E+00 -0.54952836073E+02  0.54952836073E+02  0.00000000000E+00 0. -1.
      -24    2    1    2    0    0 -0.50646122334E+02  0.20162190408E+01  0.12852153094E+03  0.14697571044E+03  0.50149583234E+02 0.  0.
       11    1    3    3    0    0 -0.42954409544E+02  0.32884170992E+01  0.13169214613E+03  0.13855943251E+03  0.00000000000E+00 0. -1.
      -12    1    3    3    0    0 -0.76917127899E+01 -0.12721980584E+01 -0.31706151885E+01  0.84162779312E+01  0.00000000000E+00 0.  1.
        4    1    1    2  501    0  0.50646122334E+02 -0.20162190408E+01 -0.31679530276E+02  0.59771962367E+02  0.00000000000E+00 0. -1.
</event>
<event>
 5   1  0.6181100E+00  0.7153066E+02  0.7957747E-01  0.1352073E+00
       -2   -1    0    0    0  501  0.00000000000E+00  0.00000000000E+00  0.36203146005E+02  0.36203146005E+02  0.00000000000E+00 0.  1.
        1   -1    0    0  501    0  0.00000000000E+00  0.00000000000E+00 -0.35332809753E+02  0.35332809753E+02  0.00000000000E+00 0. -1.
      -24    2    1    2    0    0  0.00000000000E+00  0.00000000000E+00  0.87033625170E+00  0.71535955758E+02  0.71530661126E+02 0.  0.
       11    1    3    3    0    0 -0.22788699854E+02  0.27546539682E+02 -0.57593626036E+00  0.35755676362E+02  0.00000000000E+00 0. -1.
      -12    1    3    3    0    0  0.22788699854E+02 -0.27546539682E+02  0.14462725121E+01  0.35780279397E+02  0.00000000000E+00 0.  1.
</event>
<event>
 5   1  0.6181100E+00  0.8120409E+02  0.7957747E-01  0.1324360E+00
       -2   -1    0    0    0  501  0.00000000000E+00  0.00000000000E+00  0.12704650002E+04  0.12704650002E+04  0.00000000000E+00 0.  1.
        1   -1    0    0  501    0  0.00000000000E+00  0.00000000000E+00 -0.12975768101E+01  0.12975768101E+01  0.00000000000E+00 0. -1.
      -24    2    1    2    0    0  0.00000000000E+00  0.00000000000E+00  0.12691674234E+04  0.12717625770E+04  0.81204086653E+02 0.  0.
       11    1    3    3    0    0 -0.64613945109E+01  0.80671966305E+01  0.19650968450E+02  0.22203374552E+02  0.00000000000E+00 0. -1.
      -12    1    3    3    0    0  0.64613945109E+01 -0.80671966305E+01  0.12495164549E+04  0.12495592025E+04  0.00000000000E+00 0.  1.
</event>
<event>
 6   2  0.6181100E+00  0.8532005E+02  0.7957747E-01  0.1313862E+00
       -2   -1    0    0    0  501  0.00000000000E+00  0.00000000000E+00  0.22048767277E+02  0.22048767277E+02  0.00000000000E+00 0.  1.
        1   -1    0    0  502    0  0.00000000000E+00  0.00000000000E+00 -0.15629548507E+03  0.15629548507E+03  0.00000000000E+00 0. -1.
      -24    2    1    2    0    0  0.71518053514E+01 -0.26707917489E+02 -0.12000301405E+03  0.14724209369E+03  0.80715857166E+02 0.  0.
       11    1    3    3    0    0 -0.75616002833E+01 -0.53502893223E+02 -0.67210721675E+02  0.86238149854E+02  0.00000000000E+00 0. -1.
      -12    1    3    3    0    0  0.14713405635E+02  0.26794975734E+02 -0.52792292374E+02  0.61003943840E+02  0.00000000000E+00 0.  1.
       21    1    1    2  502  501 -0.71518053514E+01  0.26707917489E+02 -0.14243703740E+02  0.31102158649E+02  0.00000000000E+00 0.  1.
</event>
<event>
 5   1  0.6181100E+00  0.8179579E+02  0.7957747E-01  0.1322808E+00
       -4   -1    0    0    0  501  0.00000000000E+00  0.00000000000E+00  0.12926216912E+02  0.12926216912E+02  0.00000000000E+00 0.  1.
        3   -1    0    0  501    0  0.00000000000E+00  0.00000000000E+00 -0.12939887316E+03  0.12939887316E+03  0.00000000000E+00 0. -1.
      -24    2    1    2    0    0  0.00000000000E+00  0.00000000000E+00 -0.11647265625E+03  0.14232509007E+03  0.81795792134E+02 0.  0.
       11    1    3    3    0    0  0.34001937595E+02 -0.12792069181E+02 -0.90921993100E+02  0.97911069974E+02  0.00000000000E+00 0. -1.
      -12    1    3    3    0    0 -0.34001937595E+02  0.12792069181E+02 -0.25550663150E+02  0.44414020101E+02  0.00000000000E+00 0.  1.
</event>
<event>
 6   2  0.6181100E+00  0.8547183E+02  0.7957747E-01  0.1313488E+00
        1   -1    0    0  502    0  0.00000000000E+00  0.00000000000E+00  0.49478212493E+02  0.49478212493E+02  0.00000000000E+00 0. -1.
       21   -1    0    0  501  502  0.00000000000E+00  0.00000000000E+00 -0.64551454859E+02  0.64551454859E+02  0.00000000000E+00 0.  1.
      -24    2    1    2    0    0  0.25900283410E+02 -0.74815502624E+01 -0.16428739026E+02  0.87036415487E+02  0.81108790398E+02 0.  0.
       11    1    3    3    0    0 -0.25950838128E+02 -0.11941959189E+02  0.78259905129E+01  0.29619292975E+02  0.00000000000E+00 0. -1.
      -12    1    3    3    0    0  0.51851121538E+02  0.44604089268E+01 -0.24254729539E+02  0.57417122512E+02  0.00000000000E+00 0.  1.
        2    1    1    2  501    0 -0.25900283410E+02  0.74815502624E+01  0.13554966602E+01  0.26993251865E+02  0.00000000000E+00 0. -1.
</event>
<event>
 5   1  0.6181100E+00  0.8130530E+02  0.7957747E-01  0.1324093E+00
       -2   -1    0    0    0  501  0.00000000000E+00  0.00000000000E+00  0.10314499162E+03  0.10314499162E+03  0.00000000000E+00 0.  1.
        1   -1    0    0  501    0  0.00000000000E+00  0.00000000000E+00 -0.16022473119E+02  0.16022473119E+02  0.00000000000E+00 0. -1.
      -24    2    1    2    0    0  0.00000000000E+00  0.00000000000E+00  0.87122518496E+02  0.11916746474E+03  0.81305297627E+02 0.  0.
       11    1    3    3    0    0  0.32402055950E+02 -0.64004264802E+01  0.88219106446E+01  0.34186032182E+02  0.00000000000E+00 0. -1.
      -12    1    3    3    0    0 -0.32402055950E+02  0.64004264802E+01  0.78300607852E+02  0.84981432553E+02  0.00000000000E+00 0.  1.
</event>
<event>
 6   2  0.6181100E+00  0.1002096E+03  0.7957747E-01  0.1280833E+00
       -2   -1    0    0    0  501  0.00000000000E+00  0.00000000000E+00  0.62984774037E+02  0.62984774037E+02  0.00000000000E+00 0.  1.
       21   -1    0    0  501  502  0.00000000000E+00  0.00000000000E+00 -0.10938071027E+03  0.10938071027E+03  0.00000000000E+00 0.  1.
      -24    2    1    2    0    0 -0.59631024555E+02 -0.10610681629E+02 -0.49398029007E+02  0.11172343441E+03  0.79834296342E+02 0.  0.
       11    1    3    3    0    0  0.17795244324E+02 -0.17493642140E+01 -0.23649101122E+02  0.29648119326E+02  0.00000000000E+00 0. -1.
      -12    1    3    3    0    0 -0.77426268879E+02 -0.88613174154E+01 -0.25748927885E+02  0.82075315084E+02  0.00000000000E+00 0.  1.
       -1    1    1    2    0  502  0.59631024555E+02  0.10610681629E+02  0.30020927786E+01  0.60642049893E+02  0.00000000000E+00 0.  1.
</event>
<event>
 5   1  0.6181100E+00  0.8014933E+02  0.7957747E-01  0.1327164E+00
       -2   -1    0    0    0  501  0.00000000000E+00  0.00000000000E+00  0.53628525649E+02  0.53628525649E+02  0.00000000000E+00 0.  1.
        1   -1    0    0  501    0  0.00000000000E+00  0.00000000000E+00 -0.29946352541E+02  0.29946352541E+02  0.00000000000E+00 0. -1.
      -24    2    1    2    0    0  0.00000000000E+00  0.00000000000E+00  0.23682173107E+02  0.83574878190E+02  0.80149329014E+02 0.  0.
       11    1    3    3    0    0  0.32105519184E+02 -0.71493169808E+00 -0.13156477299E+02  0.34704011069E+02  0.00000000000E+00 0. -1.
      -12    1    3    3    0    0 -0.32105519184E+02  0.71493169808E+00  0.36838650406E+02  0.48870867121E+02  0.00000000000E+00 0.  1.
</event>
<event>
 6   2  0.6181100E+00  0.1040882E+03  0.7957747E-01  0.1273276E+00
       -2   -1    0    0    0  501  0.00000000000E+00  0.00000000000E+00  0.53634993351E+03  0.53634993351E+03  0.00000000000E+00 0.  1.
       21   -1    0    0  501  502  0.00000000000E+00  0.00000000000E+00 -0.20035636071E+02  0.20035636071E+02  0.00000000000E+00 0. -1.
      -24    2    1    2    0    0  0.36529911657E+02  0.48019442743E+02  0.13572110924E+03  0.17103965195E+03  0.84817696977E+02 0.  0.
       11    1    3    3    0    0  0.35791471053E+02  0.17729798882E+02  0.92625660607E+01  0.41002076759E+02  0.00000000000E+00 0. -1.
      -12    1    3    3    0    0  0.73844060416E+00  0.30289643861E+02  0.12645854318E+03  0.13003757519E+03  0.00000000000E+00 0.  1.
       -1    1    1    2    0  502 -0.36529911657E+02 -0.48019442743E+02  0.38059318820E+03  0.38534591762E+03  0.00000000000E+00 0.  1.
</event>
<event>
 5   1  0.6181100E+00  0.8025915E+02  0.7957747E-01  0.1326870E+00
       -4   -1    0    0    0  501  0.00000000000E+00  0.00000000000E+00  0.26072200578E+02  0.26072200578E+02  0.00000000000E+00 0.  1.
        3   -1    0    0  501    0  0.00000000000E+00  0.00000000000E+00 -0.61766272018E+02  0.61766272018E+02  0.00000000000E+00 0. -1.
      -24    2    1    2    0    0  0.00000000000E+00  0.00000000000E+00 -0.35694071439E+02  0.87838472596E+02  0.80259146096E+02 0.  0.
       11    1    3    3    0    0 -0.26432163334E+02  0.19896436117E+02 -0.42704346875E+02  0.54020261668E+02  0.00000000000E+00 0. -1.
      -12    1    3    3    0    0  0.26432163334E+02 -0.19896436117E+02  0.70102754352E+01  0.33818210928E+02  0.00000000000E+00 0.  1.
</event>
<event>
 5   1  0.6181100E+00  0.8027852E+02  0.7957747E-01  0.1326818E+00
       -2   -1    0    0    0  501  0.00000000000E+00  0.00000000000E+00  0.10153959487E+04  0.10153959487E+04  0.00000000000E+00 0.  1.
        1   -1    0    0  501    0  0.00000000000E+00  0.00000000000E+00 -0.15867311519E+01  0.15867311519E+01  0.00000000000E+00 0. -1.
      -24    2    1    2    0    0  0.00000000000E+00  0.00000000000E+00  0.10138092175E+04  0.10169826798E+04  0.80278524732E+02 0.  0.
       11    1    3    3    0    0  0.20300293812E+02 -0.13664381654E+02  0.10383686597E+03  0.10668135727E+03  0.00000000000E+00 0. -1.
      -12    1    3    3    0    0 -0.20300293812E+02  0.13664381654E+02  0.90997235153E+03  0.91030132254E+03  0.00000000000E+00 0.  1.
</event>
<event>
 5   1  0.6181100E+00  0.8031672E+02  0.7957747E-01  0.1326716E+00
        1   -1    0    0  501    0  0.00000000000E+00  0.00000000000E+00  0.31190971908E+03  0.31190971908E+03  0.00000000000E+00 0. -1.
       -2   -1    0    0    0  501  0.00000000000E+00  0.00000000000E+00 -0.51703867956E+01  0.51703867956E+01  0.00000000000E+00 0.  1.
      -24    2    1    2    0    0  0.00000000000E+00  0.00000000000E+00  0.30673933229E+03  0.31708010588E+03  0.80316720375E+02 0.  0.
       11    1    3    3    0    0 -0.39075173563E+02  0.21944010498E+01  0.18890255270E+03  0.19291412339E+03  0.00000000000E+00 0. -1.
      -12    1    3    3    0    0  0.39075173563E+02 -0.21944010498E+01  0.11783677959E+03  0.12416598249E+03  0.00000000000E+00 0.  1.
</event>
<event>
 5   1  0.6181100E+00  0.8139856E+02  0.7957747E-01  0.1323848E+00
       -2   -1    0    0    0  501  0.00000000000E+00  0.00000000000E+00  0.82186944314E+01  0.82186944314E+01  0.00000000000E+00 0.  1.
        1   -1    0    0  501    0  0.00000000000E+00  0.00000000000E+00 -0.20154436827E+03  0.20154436827E+03  0.00000000000E+00 0. -1.
      -24    2    1    2    0    0  0.00000000000E+00  0.00000000000E+00 -0.19332567384E+03  0.20976306270E+03  0.81398564536E+02 0.  0.
       11    1    3    3    0    0 -0.25229861396E+02 -0.14641883890E+02 -0.16980120843E+03  0.17228865620E+03  0.00000000000E+00 0. -1.
      -12    1    3    3    0    0  0.25229861396E+02  0.14641883890E+02 -0.23524465402E+02  0.37474406497E+02  0.00000000000E+00 0.  1.
</event>
<event>
 5   1  0.6181100E+00  0.8116434E+02  0.7957747E-01  0.1324465E+00
        3   -1    0    0  501    0  0.00000000000E+00  0.00000000000E+00  0.24178135962E+02  0.24178135962E+02  0.00000000000E+00 0. -1.
       -4   -1    0    0    0  501  0.00000000000E+00  0.00000000000E+00 -0.68115785087E+02  0.68115785087E+02  0.00000000000E+00 0.  1.
      -24    2    1    2    0    0  0.00000000000E+00  0.00000000000E+00 -0.43937649125E+02  0.92293921049E+02  0.81164344709E+02 0.  0.
       11    1    3    3    0    0  0.15318467169E+02  0.19555613857E+02  0.14522672914E+02  0.28774737154E+02  0.00000000000E+00 0. -1.
      -12    1    3    3    0    0 -0.15318467169E+02 -0.19555613857E+02 -0.58460322039E+02  0.63519183895E+02  0.00000000000E+00 0.  1.
</event>
<event>
 6   2  0.6181100E+00  0.9714561E+02  0.7957747E-01  0.1287079E+00
        1   -1    0    0  502    0  0.00000000000E+00  0.00000000000E+00  0.70300268965E+01  0.70300268965E+01  0.00000000000E+00 0. -1.
       21   -1    0    0  501  502  0.00000000000E+00  0.00000000000E+00 -0.90060955954E+03  0.90060955954E+03  0.00000000000E+00 0. -1.
      -24    2    1    2    0    0 -0.28937227655E+01  0.44986445992E+02 -0.38503755861E+03  0.39710350220E+03  0.86052983471E+02 0.  0.
       11    1    3    3    0    0  0.24223796929E+02  0.47687266767E+02 -0.12941674523E+03  0.14003414474E+03  0.00000000000E+00 0. -1.
      -12    1    3    3    0    0 -0.27117519694E+02 -0.27008207752E+01 -0.25562081339E+03  0.25706935746E+03  0.00000000000E+00 0.  1.
        2    1    1    2  501    0  0.28937227655E+01 -0.44986445992E+02 -0.50854197403E+03  0.51053608424E+03  0.00000000000E+00 0. -1.
</event>
<event>
 5   1  0.6181100E+00  0.8124704E+02  0.7957747E-01  0.1324247E+00
       -2   -1    0    0    0  501  0.00000000000E+00  0.00000000000E+00  0.35869816331E+02  0.35869816331E+02  0.00000000000E+00 0.  1.
        1   -1    0    0  501    0  0.00000000000E+00  0.00000000000E+00 -0.46007211032E+02  0.46007211032E+02  0.00000000000E+00 0. -1.
      -24    2    1    2    0    0  0.00000000000E+00  0.00000000000E+00 -0.10137394701E+02  0.81877027362E+02  0.81247035874E+02 0.  0.
       11    1    3    3    0    0 -0.91918966205E+01 -0.36609736645E+02 -0.20202010011E+02  0.42812206077E+02  0.00000000000E+00 0. -1.
      -12    1    3    3    0    0  0.91918966205E+01  0.36609736645E+02  0.10064615310E+02  0.39064821285E+02  0.00000000000E+00 0.  1.
</event>
<event>
 5   1  0.6181100E+00  0.9787662E+02  0.7957747E-01  0.1285566E+00
        1   -1    0    0  501    0  0.00000000000E+00  0.00000000000E+00  0.31985805393E+02  0.31985805393E+02  0.00000000000E+00 0. -1.
       -2   -1    0    0    0  501  0.00000000000E+00  0.00000000000E+00 -0.74875657370E+02  0.74875657370E+02  0.00000000000E+00 0.  1.
      -24    2    1    2    0    0  0.00000000000E+00  0.00000000000E+00 -0.42889851977E+02  0.10686146276E+03  0.97876620402E+02 0.  0.
       11    1    3    3    0    0 -0.46094808677E+02 -0.12453447462E+02 -0.97296542500E+01  0.48728697012E+02  0.00000000000E+00 0. -1.
      -12    1    3    3    0    0  0.46094808677E+02  0.12453447462E+02 -0.33160197726E+02  0.58132765751E+02  0.00000000000E+00 0.  1.
</event>
<event>
 6   2  0.6181100E+00  0.9674040E+02  0.7957747E-01  0.1287925E+00
        3   -1    0    0  502    0  0.00000000000E+00  0.00000000000E+00  0.99002065926E+02  0.99002065926E+02  0.00000000000E+00 0. -1.
       21   -1    0    0  501  502  0.00000000000E+00  0.00000000000E+00 -0.62008617026E+02  0.62008617026E+02  0.00000000000E+00 0.  1.
      -24    2    1    2    0    0  0.89205592944E+01 -0.57934140064E+02  0.33170725321E+02  0.10226926504E+03  0.76959499671E+02 0.  0.
       11    1    3    3    0    0 -0.21275781088E+02 -0.34572980716E+02  0.46596319488E+02  0.61799408139E+02  0.00000000000E+00 0. -1.
      -12    1    3    3    0    0  0.30196340382E+02 -0.23361159348E+02 -0.13425594167E+02  0.40469856898E+02  0.00000000000E+00 0.  1.
        4    1    1    2  501    0 -0.89205592944E+01  0.57934140064E+02  0.38227235784E+01  0.58741417915E+02  0.00000000000E+00 0. -1.
</event>
<event>
 5   1  0.6181100E+00  0.8058808E+02  0.7957747E-01  0.1325992E+00
        1   -1    0    0  501    0  0.00000000000E+00  0.00000000000E+00  0.28833027110E+02  0.28833027110E+02  0.00000000000E+00 0. -1.
       -2   -1    0    0    0  501  0.00000000000E+00  0.00000000000E+00 -0.56310759396E+02  0.56310759396E+02  0.00000000000E+00 0.  1.
      -24    2    1    2    0    0  0.00000000000E+00  0.00000000000E+00 -0.27477732287E+02  0.85143786506E+02  0.80588079820E+02 0.  0.
       11    1    3    3    0    0 -0.35193838090E+02 -0.16502440727E+01  0.69184074659E+01  0.35905346494E+02  0.00000000000E+00 0. -1.
      -12    1    3    3    0    0  0.35193838090E+02  0.16502440727E+01 -0.34396139752E+02  0.49238440012E+02  0.00000000000E+00 0.  1.
</event>
<event>
 4   1  0.6181100E+00  0.3837438E+02  0.7957747E-01  0.1506888E+00
       -2   -1    0    0    0  501  0.00000000000E+00  0.00000000000E+00  0.44276967613E+03  0.44276967613E+03  0.00000000000E+00 0.  1.
        1   -1    0    0  501    0  0.00000000000E+00  0.00000000000E+00 -0.83146678802E+00  0.83146678802E+00  0.00000000000E+00 0. -1.
       11    1    1    2    0    0 -0.10132876279E+02  0.85804805807E+01  0.60854693713E+02  0.62286383549E+02  0.00000000000E+00 0. -1.
      -12    1    1    2    0    0  0.10132876279E+02 -0.85804805807E+01  0.38108351563E+03  0.38131475937E+03  0.00000000000E+00 0.  1.
</event>
<event>
 4   3  0.6181100E+00  0.1822417E+03  0.7957747E-01  0.1171347E+00
       -1   -1    0    0    0  501  0.00000000000E+00  0.00000000000E+00  0.13891839870E+03  0.13891839870E+03  0.00000000000E+00 0.  1.
        1   -1    0    0  502    0  0.00000000000E+00  0.00000000000E+00 -0.31505796222E+03  0.31505796222E+03  0.00000000000E+00 0. -1.
        6    1    1    2  502    0 -0.17456971589E+02  0.54573561793E+02  0.23401757514E+02  0.18373802480E+03  0.17300000000E+03 0.  1.
       -6    1    1    2    0  501  0.17456971589E+02 -0.54573561793E+02 -0.19954132104E+03  0.27023833611E+03  0.17300000000E+03 0. -1.
</event>
<event>
 5   1  0.6181100E+00  0.8026581E+02  0.7957747E-01  0.1326852E+00
       -4   -1    0    0    0  501  0.00000000000E+00  0.00000000000E+00  0.10707815714E+02  0.10707815714E+02  0.00000000000E+00 0.  1.
        3   -1    0    0  501    0  0.00000000000E+00  0.00000000000E+00 -0.15041817486E+03  0.15041817486E+03  0.00000000000E+00 0. -1.
      -24    2    1    2    0    0  0.00000000000E+00  0.00000000000E+00 -0.13971035915E+03  0.16112599057E+03  0.80265810816E+02 0.  0.
       11    1    3    3    0    0 -0.19894642281E+02  0.31935908506E+02 -0.97883546591E+02  0.10486604663E+03  0.00000000000E+00 0. -1.
      -12    1    3    3    0    0  0.19894642281E+02 -0.31935908506E+02 -0.41826812555E+02  0.56259943940E+02  0.00000000000E+00 0.  1.
</event>
<event>
 5   1  0.6181100E+00  0.5218105E+02  0.7957747E-01  0.1426291E+00
       -2   -1    0    0    0  501  0.00000000000E+00  0.00000000000E+00  0.99847842558E+03  0.99847842558E+03  0.00000000000E+00 0.  1.
        1   -1    0    0  501    0  0.00000000000E+00  0.00000000000E+00 -0.68175283917E+00  0.68175283917E+00  0.00000000000E+00 0. -1.
      -24    2    1    2    0    0  0.00000000000E+00  0.00000000000E+00  0.99779667274E+03  0.99916017842E+03  0.52181050257E+02 0.  0.
       11    1    3    3    0    0 -0.45581361184E+01  0.12641170877E+02  0.70677334149E+02  0.71943459525E+02  0.00000000000E+00 0. -1.
      -12    1    3    3    0    0  0.45581361184E+01 -0.12641170877E+02  0.92711933859E+03  0.92721671889E+03  0.00000000000E+00 0.  1.
</event>
<event>
 5   1  0.6181100E+00  0.8030210E+02  0.7957747E-01  0.1326755E+00
       -2   -1    0    0    0  501  0.00000000000E+00  0.00000000000E+00  0.11358507255E+03  0.11358507255E+03  0.00000000000E+00 0.  1.
        1   -1    0    0  501    0  0.00000000000E+00  0.00000000000E+00 -0.14192947560E+02  0.14192947560E+02  0.00000000000E+00 0. -1.
      -24    2    1    2    0    0  0.00000000000E+00  0.00000000000E+00  0.99392124994E+02  0.12777802011E+03  0.80302104040E+02 0.  0.
       11    1    3    3    0    0  0.63674767182E+01 -0.15062135756E+02 -0.86539575400E+01  0.18501450602E+02  0.00000000000E+00 0. -1.
      -12    1    3    3    0    0 -0.63674767182E+01  0.15062135756E+02  0.10804608253E+03  0.10927656951E+03  0.00000000000E+00 0.  1.
</event>
<event>
 4   3  0.6181100E+00  0.1956562E+03  0.7957747E-01  0.1159576E+00
       21   -1    0    0  503  502  0.00000000000E+00  0.00000000000E+00  0.59424789964E+02  0.59424789964E+02  0.00000000000E+00 0. -1.
       21   -1    0    0  501  503  0.00000000000E+00  0.00000000000E+00 -0.64441395773E+03  0.64441395773E+03  0.00000000000E+00 0. -1.
        6    1    1    2  501    0  0.30853824908E+02 -0.86025606874E+02 -0.28606043658E+03  0.34657169089E+03  0.17300000000E+03 0. -1.
       -6    1    1    2    0  502 -0.30853824908E+02  0.86025606874E+02 -0.29892873119E+03  0.35726705681E+03  0.17300000000E+03 0. -1.
</event>
<event>
 5   1  0.6181100E+00  0.8115076E+02  0.7957747E-01  0.1324501E+00
        1   -1    0    0  501    0  0.00000000000E+00  0.00000000000E+00  0.15289238670E+03  0.15289238670E+03  0.00000000000E+00 0. -1.
       -2   -1    0    0    0  501  0.00000000000E+00  0.00000000000E+00 -0.10768106606E+02  0.10768106606E+02  0.00000000000E+00 0.  1.
      -24    2    1    2    0    0  0.00000000000E+00  0.00000000000E+00  0.14212428009E+03  0.16366049330E+03  0.81150761407E+02 0.  0.
       11    1    3    3    0    0 -0.35866314570E+02  0.16855241925E+02  0.53495618274E+02  0.66575317315E+02  0.00000000000E+00 0. -1.
      -12    1    3    3    0    0  0.35866314570E+02 -0.16855241925E+02  0.88628661817E+02  0.97085175988E+02  0.00000000000E+00 0.  1.
</event>
<event>
 5   1  0.6181100E+00  0.8105273E+02  0.7957747E-01  0.1324759E+00
        1   -1    0    0  501    0  0.00000000000E+00  0.00000000000E+00  0.13352084826E+02  0.13352084826E+02  0.00000000000E+00 0. -1.
       -2   -1    0    0    0  501  0.00000000000E+00  0.00000000000E+00 -0.12300599300E+03  0.12300599300E+03  0.00000000000E+00 0.  1.
      -24    2    1    2    0    0  0.00000000000E+00  0.00000000000E+00 -0.10965390818E+03  0.13635807783E+03  0.81052734751E+02 0.  0.
       11    1    3    3    0    0  0.25503488758E+02  0.59661035937E+01 -0.28004271350E+01  0.26341312098E+02  0.00000000000E+00 0. -1.
      -12    1    3    3    0    0 -0.25503488758E+02 -0.59661035937E+01 -0.10685348104E+03  0.11001676573E+03  0.00000000000E+00 0.  1.
</event>
<event>
 6   2  0.6181100E+00  0.9017801E+02  0.7957747E-01  0.1302301E+00
       21   -1    0    0  501  502  0.00000000000E+00  0.00000000000E+00  0.19840469068E+03  0.19840469068E+03  0.00000000000E+00 0.  1.
       -2   -1    0    0    0  501  0.00000000000E+00  0.00000000000E+00 -0.27816898224E+02  0.27816898224E+02  0.00000000000E+00 0.  1.
      -24    2    1    2    0    0  0.16326255742E+02 -0.38063039172E+02  0.60478149984E+02  0.10858029113E+03  0.80104503107E+02 0.  0.
       11    1    3    3    0    0  0.88947758408E+01  0.24954895293E+02  0.14336644926E+02  0.30123134367E+02  0.00000000000E+00 0. -1.
      -12    1    3    3    0    0  0.74314799011E+01 -0.63017934465E+02  0.46141505058E+02  0.78457156760E+02  0.00000000000E+00 0.  1.
       -1    1    1    2    0  502 -0.16326255742E+02  0.38063039172E+02  0.11010964247E+03  0.11764129778E+03  0.00000000000E+00 0.  1.
</event>
<event>
 5   1  0.6181100E+00  0.8047639E+02  0.7957747E-01  0.1326289E+00
       -4   -1    0    0    0  501  0.00000000000E+00  0.00000000000E+00  0.20241460259E+02  0.20241460259E+02  0.00000000000E+00 0.  1.
        3   -1    0    0  501    0  0.00000000000E+00  0.00000000000E+00 -0.79989894419E+02  0.79989894419E+02  0.00000000000E+00 0. -1.
      -24    2    1    2    0    0  0.00000000000E+00  0.00000000000E+00 -0.59748434160E+02  0.10023135468E+03  0.80476388314E+02 0.  0.
       11    1    3    3    0    0 -0.36321416632E+02 -0.17146381388E+02 -0.32891396929E+02  0.51914234010E+02  0.00000000000E+00 0. -1.
      -12    1    3    3    0    0  0.36321416632E+02  0.17146381388E+02 -0.26857037230E+02  0.48317120668E+02  0.00000000000E+00 0.  1.
</event>
<event>
 5   1  0.6181100E+00  0.8236260E+02  0.7957747E-01  0.1321335E+00
       -4   -1    0    0    0  501  0.00000000000E+00  0.00000000000E+00  0.16875285563E+03  0.16875285563E+03  0.00000000000E+00 0.  1.
        3   -1    0    0  501    0  0.00000000000E+00  0.00000000000E+00 -0.10049605356E+02  0.10049605356E+02  0.00000000000E+00 0. -1.
      -24    2    1    2    0    0  0.00000000000E+00  0.00000000000E+00  0.15870325028E+03  0.17880246099E+03  0.82362603211E+02 0.  0.
       11    1    3    3    0    0  0.18943145608E+02  0.28583386497E+02  0.29844847030E+02  0.45459516533E+02  0.00000000000E+00 0. -1.
      -12    1    3    3    0    0 -0.18943145608E+02 -0.28583386497E+02  0.12885840325E+03  0.13334294446E+03  0.00000000000E+00 0.  1.
</event>
<event>
 6   2  0.6181100E+00  0.8706748E+02  0.7957747E-01  0.1309606E+00
       -4   -1    0    0    0  501  0.00000000000E+00  0.00000000000E+00  0.64830620318E+02  0.64830620318E+02  0.00000000000E+00 0.  1.
        3   -1    0    0  502    0  0.00000000000E+00  0.00000000000E+00 -0.69438813421E+02  0.69438813421E+02  0.00000000000E+00 0. -1.
      -24    2    1    2    0    0 -0.21305490598E+02  0.23168202610E+02 -0.31782132452E+02  0.92686834957E+02  0.81179159206E+02 0.  0.
       11    1    3    3    0    0 -0.14968601665E+00 -0.21433189869E+02 -0.37295119347E+02  0.43015461883E+02  0.00000000000E+00 0. -1.
      -12    1    3    3    0    0 -0.21155804581E+02  0.44601392479E+02  0.55129868954E+01  0.49671373074E+02  0.00000000000E+00 0.  1.
       21    1    1    2  502  501  0.21305490598E+02 -0.23168202610E+02  0.27173939349E+02  0.41582598783E+02  0.00000000000E+00 0. -1.
</event>
<event>
 4   3  0.6181100E+00  0.2157757E+03  0.7957747E-01  0.1143736E+00
       21   -1    0    0  503  502  0.00000000000E+00  0.00000000000E+00  0.84759214718E+02  0.84759214718E+02  0.00000000000E+00 0. -1.
       21   -1    0    0  501  503  0.00000000000E+00  0.00000000000E+00 -0.58708982205E+03  0.58708982205E+03  0.00000000000E+00 0. -1.
        6    1    1    2  501    0  0.32297383095E+02 -0.12484805543E+03 -0.16595062980E+03  0.27221089146E+03  0.17300000000E+03 0. -1.
       -6    1    1    2    0  502 -0.32297383095E+02  0.12484805543E+03 -0.33637997754E+03  0.39963814531E+03  0.17300000000E+03 0. -1.
</event>
<event>
 6   2  0.6181100E+00  0.8522261E+02  0.7957747E-01  0.1314103E+00
       21   -1    0    0  501  502  0.00000000000E+00  0.00000000000E+00  0.10694624051E+02  0.10694624051E+02  0.00000000000E+00 0.  1.
        1   -1    0    0  502    0  0.00000000000E+00  0.00000000000E+00 -0.29362356831E+03  0.29362356831E+03  0.00000000000E+00 0. -1.
      -24    2    1    2    0    0  0.46188998972E+01 -0.25629871682E+02 -0.23112619589E+03  0.24633759821E+03  0.81145975318E+02 0.  0.
       11    1    3    3    0    0 -0.59533847097E+00  0.28032307441E+02 -0.11401203431E+03  0.11740915065E+03  0.00000000000E+00 0. -1.
      -12    1    3    3    0    0  0.52142383681E+01 -0.53662179123E+02 -0.11711416157E+03  0.12892844756E+03  0.00000000000E+00 0.  1.
        2    1    1    2  501    0 -0.46188998972E+01  0.25629871682E+02 -0.51802748372E+02  0.57980594146E+02  0.00000000000E+00 0. -1.
</event>
<event>
 6   2  0.6181100E+00  0.8590795E+02  0.7957747E-01  0.1312417E+00
       -4   -1    0    0    0  501  0.00000000000E+00  0.00000000000E+00  0.31535671860E+02  0.31535671860E+02  0.00000000000E+00 0.  1.
       21   -1    0    0  501  502  0.00000000000E+00  0.00000000000E+00 -0.33957849502E+03  0.33957849502E+03  0.00000000000E+00 0.  1.
      -24    2    1    2    0    0 -0.75666432963E+00 -0.31724508868E+02 -0.29593264917E+02  0.90862184746E+02  0.79832063011E+02 0.  0.
       11    1    3    3    0    0 -0.24488908020E+02  0.16825027331E+02 -0.20413221207E+02  0.36048408574E+02  0.00000000000E+00 0. -1.
      -12    1    3    3    0    0  0.23732243690E+02 -0.48549536199E+02 -0.91800437095E+01  0.54813776172E+02  0.00000000000E+00 0.  1.
       -3    1    1    2    0  502  0.75666432963E+00  0.31724508868E+02 -0.27844955824E+03  0.28025198213E+03  0.00000000000E+00 0.  1.
</event>
<event>
 5   1  0.6181100E+00  0.8284632E+02  0.7957747E-01  0.1320089E+00
        1   -1    0    0  501    0  0.00000000000E+00  0.00000000000E+00  0.81440574809E+02  0.81440574809E+02  0.00000000000E+00 0. -1.
       -2   -1    0    0    0  501  0.00000000000E+00  0.00000000000E+00 -0.21069083375E+02  0.21069083375E+02  0.00000000000E+00 0.  1.
      -24    2    1    2    0    0  0.00000000000E+00  0.00000000000E+00  0.60371491434E+02  0.10250965818E+03  0.82846321844E+02 0.  0.
       11    1    3    3    0    0  0.16696316299E+02 -0.37902932661E+02  0.31042092279E+02  0.51759161269E+02  0.00000000000E+00 0. -1.
      -12    1    3    3    0    0 -0.16696316299E+02  0.37902932661E+02  0.29329399156E+02  0.50750496915E+02  0.00000000000E+00 0.  1.
</event>
<event>
 6   2  0.6181100E+00  0.1267276E+03  0.7957747E-01  0.1235500E+00
       -2   -1    0    0    0  501  0.00000000000E+00  0.00000000000E+00  0.12008165217E+03  0.12008165217E+03  0.00000000000E+00 0.  1.
        1   -1    0    0  502    0  0.00000000000E+00  0.00000000000E+00 -0.16440138746E+03  0.16440138746E+03  0.00000000000E+00 0. -1.
      -24    2    1    2    0    0  0.95997619171E+02 -0.26337312250E+02  0.60065725428E+02  0.14024184817E+03  0.78426320221E+02 0.  0.
       11    1    3    3    0    0  0.52825427627E+02  0.25650163003E+02  0.22198653520E+02  0.62779271134E+02  0.00000000000E+00 0. -1.
      -12    1    3    3    0    0  0.43172191544E+02 -0.51987475253E+02  0.37867071908E+02  0.77462577034E+02  0.00000000000E+00 0.  1.
       21    1    1    2  502  501 -0.95997619171E+02  0.26337312250E+02 -0.10438546072E+03  0.14424119146E+03  0.00000000000E+00 0. -1.
</event>
<event>
 5   1  0.6181100E+00  0.8081177E+02  0.7957747E-01  0.1325397E+00
        3   -1    0    0  501    0  0.00000000000E+00  0.00000000000E+00  0.53329937083E+01  0.53329937083E+01  0.00000000000E+00 0. -1.
       -4   -1    0    0    0  501  0.00000000000E+00  0.00000000000E+00 -0.30613866600E+03  0.30613866600E+03  0.00000000000E+00 0.  1.
      -24    2    1    2    0    0  0.00000000000E+00  0.00000000000E+00 -0.30080567229E+03  0.31147165971E+03  0.80811770916E+02 0.  0.
       11    1    3    3    0    0 -0.10091646777E+02 -0.32647955773E+02 -0.67298032370E+02  0.75476854146E+02  0.00000000000E+00 0. -1.
      -12    1    3    3    0    0  0.10091646777E+02  0.32647955773E+02 -0.23350763992E+03  0.23599480556E+03  0.00000000000E+00 0.  1.
</event>
<event>
 6   2  0.6181100E+00  0.8331987E+02  0.7957747E-01  0.1318878E+00
       21   -1    0    0  501  502  0.00000000000E+00  0.00000000000E+00  0.47122262989E+01  0.47122262989E+01  0.00000000000E+00 0.  1.
        1   -1    0    0  502    0  0.00000000000E+00  0.00000000000E+00 -0.67433920213E+03  0.67433920213E+03  0.00000000000E+00 0. -1.
      -24    2    1    2    0    0  0.88496667888E+01 -0.18547917773E+02 -0.39689939870E+03  0.40555065478E+03  0.80745644168E+02 0.  0.
       11    1    3    3    0    0 -0.59759144354E+00  0.31612983284E+02 -0.17729248690E+03  0.18008987684E+03  0.00000000000E+00 0. -1.
      -12    1    3    3    0    0  0.94472582323E+01 -0.50160901057E+02 -0.21960691179E+03  0.22546077794E+03  0.00000000000E+00 0.  1.
        2    1    1    2  501    0 -0.88496667888E+01  0.18547917773E+02 -0.27272757713E+03  0.27350077365E+03  0.00000000000E+00 0. -1.
</event>
<event>
 4   3  0.6181100E+00  0.3099643E+03  0.7957747E-01  0.1088702E+00
       21   -1    0    0  501  502  0.00000000000E+00  0.00000000000E+00  0.70950999074E+03  0.70950999074E+03  0.00000000000E+00 0. -1.
       21   -1    0    0  502  503  0.00000000000E+00  0.00000000000E+00 -0.14026578147E+03  0.14026578147E+03  0.00000000000E+00 0.  1.
        6    1    1    2  501    0 -0.17620705707E+03 -0.18734976894E+03  0.20560308750E+03  0.37195496027E+03  0.17300000000E+03 0. -1.
       -6    1    1    2    0  503  0.17620705707E+03  0.18734976894E+03  0.36364112177E+03  0.47782081194E+03  0.17300000000E+03 0.  1.
</event>
<event>
 6   2  0.6181100E+00  0.8447606E+02  0.7957747E-01  0.1315960E+00
        1   -1    0    0  502    0  0.00000000000E+00  0.00000000000E+00  0.86330691619E+01  0.86330691619E+01  0.00000000000E+00 0. -1.
       -2   -1    0    0    0  501  0.00000000000E+00  0.00000000000E+00 -0.34131851635E+03  0.34131851635E+03  0.00000000000E+00 0.  1.
      -24    2    1    2    0    0 -0.15684839569E+02  0.17636165131E+02 -0.27291212116E+03  0.28568729513E+03  0.81111997965E+02 0.  0.
       11    1    3    3    0    0  0.14868158233E+02 -0.47108182265E+01 -0.70017406675E+01  0.17096148981E+02  0.00000000000E+00 0. -1.
      -12    1    3    3    0    0 -0.30552997803E+02  0.22346983358E+02 -0.26591038049E+03  0.26859114615E+03  0.00000000000E+00 0.  1.
       21    1    1    2  502  501  0.15684839569E+02 -0.17636165131E+02 -0.59773326028E+02  0.64264290374E+02  0.00000000000E+00 0. -1.
</event>
<event>
 5   1  0.6181100E+00  0.8009277E+02  0.7957747E-01  0.1327316E+00
        3   -1    0    0  501    0  0.00000000000E+00  0.00000000000E+00  0.55636158834E+02  0.55636158834E+02  0.00000000000E+00 0. -1.
       -4   -1    0    0    0  501  0.00000000000E+00  0.00000000000E+00 -0.28825013727E+02  0.28825013727E+02  0.00000000000E+00 0.  1.
      -24    2    1    2    0    0  0.00000000000E+00  0.00000000000E+00  0.26811145107E+02  0.84461172561E+02  0.80092772261E+02 0.  0.
       11    1    3    3    0    0  0.34455946022E+01 -0.21500634823E+02  0.48847646622E+02  0.53481230357E+02  0.00000000000E+00 0. -1.
      -12    1    3    3    0    0 -0.34455946022E+01  0.21500634823E+02 -0.22036501515E+02  0.30979942204E+02  0.00000000000E+00 0.  1.
</event>
<event>
 5   1  0.6181100E+00  0.8054987E+02  0.7957747E-01  0.1326093E+00
        1   -1    0    0  501    0  0.00000000000E+00  0.00000000000E+00  0.22681056068E+02  0.22681056068E+02  0.00000000000E+00 0. -1.
       -2   -1    0    0    0  501  0.00000000000E+00  0.00000000000E+00 -0.71516521400E+02  0.71516521400E+02  0.00000000000E+00 0.  1.
      -24    2    1    2    0    0  0.00000000000E+00  0.00000000000E+00 -0.48835465332E+02  0.94197577469E+02  0.80549866088E+02 0.  0.
       11    1    3    3    0    0  0.21058024916E+02 -0.52122053393E+01  0.15264843149E+02  0.26525891771E+02  0.00000000000E+00 0. -1.
      -12    1    3    3    0    0 -0.21058024916E+02  0.52122053393E+01 -0.64100308481E+02  0.67671685698E+02  0.00000000000E+00 0.  1.
</event>
<event>
 6   2  0.6181100E+00  0.9110223E+02  0.7957747E-01  0.1300194E+00
       21   -1    0    0  501  502  0.00000000000E+00  0.00000000000E+00  0.10632228759E+03  0.10632228759E+03  0.00000000000E+00 0. -1.
        3   -1    0    0  502    0  0.00000000000E+00  0.00000000000E+00 -0.42723110818E+02  0.42723110818E+02  0.00000000000E+00 0. -1.
      -24    2    1    2    0    0  0.43385631371E+02  0.32041704686E+01  0.39322765140E+02  0.99226487543E+02  0.80043964507E+02 0.  0.
       11    1    3    3    0    0  0.51080164778E+02  0.17199405954E+02  0.54887012837E+02  0.76925853763E+02  0.00000000000E+00 0. -1.
      -12    1    3    3    0    0 -0.76945334064E+01 -0.13995235486E+02 -0.15564247697E+02  0.22300633781E+02  0.00000000000E+00 0.  1.
        4    1    1    2  501    0 -0.43385631371E+02 -0.32041704686E+01  0.24276411631E+02  0.49818910863E+02  0.00000000000E+00 0. -1.
</event>
<event>
 5   1  0.6181100E+00  0.7889048E+02  0.7957747E-01  0.1330575E+00
       -2   -1    0    0    0  501  0.00000000000E+00  0.00000000000E+00  0.59404813680E+02  0.59404813680E+02  0.00000000000E+00 0.  1.
        1   -1    0    0  501    0  0.00000000000E+00  0.00000000000E+00 -0.26191931137E+02  0.26191931137E+02  0.00000000000E+00 0. -1.
      -24    2    1    2    0    0  0.00000000000E+00  0.00000000000E+00  0.33212882543E+02  0.85596744817E+02  0.78890475702E+02 0.  0.
       11    1    3    3    0    0 -0.25520266714E+02 -0.30009027473E+02  0.14409188617E+02  0.41945803839E+02  0.00000000000E+00 0. -1.
      -12    1    3    3    0    0  0.25520266714E+02  0.30009027473E+02  0.18803693926E+02  0.43650940978E+02  0.00000000000E+00 0.  1.
</event>
<event>
 5   1  0.6181100E+00  0.8038391E+02  0.7957747E-01  0.1326536E+00
       -2   -1    0    0    0  501  0.00000000000E+00  0.00000000000E+00  0.18100438579E+02  0.18100438579E+02  0.00000000000E+00 0.  1.
        1   -1    0    0  501    0  0.00000000000E+00  0.00000000000E+00 -0.89246092891E+02  0.89246092891E+02  0.00000000000E+00 0. -1.
      -24    2    1    2    0    0  0.00000000000E+00  0.00000000000E+00 -0.71145654313E+02  0.10734653147E+03  0.80383914380E+02 0.  0.
       11    1    3    3    0    0 -0.38379860923E+02  0.24167950883E+01 -0.51177221107E+02  0.64015330845E+02  0.00000000000E+00 0. -1.
      -12    1    3    3    0    0  0.38379860923E+02 -0.24167950883E+01 -0.19968433206E+02  0.43331200625E+02  0.00000000000E+00 0.  1.
</event>
<event>
 5   1  0.6181100E+00  0.8193337E+02  0.7957747E-01  0.1322449E+00
        1   -1    0    0  501    0  0.00000000000E+00  0.00000000000E+00  0.78178628161E+02  0.78178628161E+02  0.00000000000E+00 0. -1.
       -2   -1    0    0    0  501  0.00000000000E+00  0.00000000000E+00 -0.21467110364E+02  0.21467110364E+02  0.00000000000E+00 0.  1.
      -24    2    1    2    0    0  0.00000000000E+00  0.00000000000E+00  0.56711517797E+02  0.99645738525E+02  0.81933368998E+02 0.  0.
       11    1    3    3    0    0 -0.50666070667E+01  0.23806231498E+02  0.68431840266E+02  0.72631425206E+02  0.00000000000E+00 0. -1.
      -12    1    3    3    0    0  0.50666070667E+01 -0.23806231498E+02 -0.11720322469E+02  0.27014313319E+02  0.00000000000E+00 0.  1.
</event>
<event>
 5   1  0.6181100E+00  0.8092434E+02  0.7957747E-01  0.1325099E+00
       -2   -1    0    0    0  501  0.00000000000E+00  0.00000000000E+00  0.25534268397E+03  0.25534268397E+03  0.00000000000E+00 0.  1.
        1   -1    0    0  501    0  0.00000000000E+00  0.00000000000E+00 -0.64117258300E+01  0.64117258300E+01  0.00000000000E+00 0. -1.
      -24    2    1    2    0    0  0.00000000000E+00  0.00000000000E+00  0.24893095814E+03  0.26175440980E+03  0.80924342006E+02 0.  0.
       11    1    3    3    0    0 -0.70514802584E+01 -0.33286797180E+02  0.53640269320E+02  0.63521750079E+02  0.00000000000E+00 0. -1.
      -12    1    3    3    0    0  0.70514802584E+01  0.33286797180E+02  0.19529068882E+03  0.19823265972E+03  0.00000000000E+00 0.  1.
</event>
<event>
 6   2  0.6181100E+00  0.8657741E+02  0.7957747E-01  0.1310788E+00
       21   -1    0    0  501  502  0.00000000000E+00  0.00000000000E+00  0.28736382976E+02  0.28736382976E+02  0.00000000000E+00 0. -1.
       -2   -1    0    0    0  501  0.00000000000E+00  0.00000000000E+00 -0.10191122479E+03  0.10191122479E+03  0.00000000000E+00 0.  1.
      -24    2    1    2    0    0  0.21248179390E+02 -0.31873944131E+01 -0.55641404477E+02  0.10291556789E+03  0.83868966919E+02 0.  0.
       11    1    3    3    0    0 -0.15433765535E+01  0.19591014083E+02  0.15361330305E+02  0.24943141597E+02  0.00000000000E+00 0. -1.
      -12    1    3    3    0    0  0.22791555944E+02 -0.22778408496E+02 -0.71002734782E+02  0.77972426296E+02  0.00000000000E+00 0.  1.
       -1    1    1    2    0  502 -0.21248179390E+02  0.31873944131E+01 -0.17533437334E+02  0.27732039869E+02  0.00000000000E+00 0.  1.
</event>
<event>
 6   2  0.6181100E+00  0.8216647E+02  0.7957747E-01  0.1321843E+00
       21   -1    0    0  501  502  0.00000000000E+00  0.00000000000E+00  0.37009225099E+03  0.37009225099E+03  0.00000000000E+00 0. -1.
        3   -1    0    0  502    0  0.00000000000E+00  0.00000000000E+00 -0.83290736386E+01  0.83290736386E+01  0.00000000000E+00 0. -1.
      -24    2    1    2    0    0 -0.11930552154E+02 -0.17952697143E+02  0.21650173329E+03  0.23156927479E+03  0.79288656832E+02 0.  0.
       11    1    3    3    0    0 -0.11879479988E+02 -0.28846229703E+02  0.25596649338E+02  0.40353630198E+02  0.00000000000E+00 0. -1.
      -12    1    3    3    0    0 -0.51072165516E-01  0.10893532560E+02  0.19090508395E+03  0.19121564459E+03  0.00000000000E+00 0.  1.
        4    1    1    2  501    0  0.11930552154E+02  0.17952697143E+02  0.14526144406E+03  0.14685204984E+03  0.00000000000E+00 0. -1.
</event>
<event>
 5   1  0.6181100E+00  0.8007489E+02  0.7957747E-01  0.1327364E+00
       -4   -1    0    0    0  501  0.00000000000E+00  0.00000000000E+00  0.25023281886E+02  0.25023281886E+02  0.00000000000E+00 0.  1.
        3   -1    0    0  501    0  0.00000000000E+00  0.00000000000E+00 -0.64060223873E+02  0.64060223873E+02  0.00000000000E+00 0. -1.
      -24    2    1    2    0    0  0.00000000000E+00  0.00000000000E+00 -0.39036941987E+02  0.89083505759E+02  0.80074890938E+02 0.  0.
       11    1    3    3    0    0  0.31834428918E+00  0.32174224881E+02 -0.46025808595E+02  0.56157431802E+02  0.00000000000E+00 0. -1.
      -12    1    3    3    0    0 -0.31834428918E+00 -0.32174224881E+02  0.69888666077E+01  0.32926073957E+02  0.00000000000E+00 0.  1.
</event>
<event>
 5   1  0.6181100E+00  0.7898420E+02  0.7957747E-01  0.1330319E+00
        1   -1    0    0  501    0  0.00000000000E+00  0.00000000000E+00  0.19986942384E+02  0.19986942384E+02  0.00000000000E+00 0. -1.
       -2   -1    0    0    0  501  0.00000000000E+00  0.00000000000E+00 -0.78032243485E+02  0.78032243485E+02  0.00000000000E+00 0.  1.
      -24    2    1    2    0    0  0.00000000000E+00  0.00000000000E+00 -0.58045301102E+02  0.98019185869E+02  0.78984199802E+02 0.  0.
       11    1    3    3    0    0 -0.97289154333E+01 -0.36047593686E+02 -0.44989862763E+02  0.58465105469E+02  0.00000000000E+00 0. -1.
      -12    1    3    3    0    0  0.97289154333E+01  0.36047593686E+02 -0.13055438339E+02  0.39554080400E+02  0.00000000000E+00 0.  1.
</event>
<event>
 5   1  0.6181100E+00  0.8331586E+02  0.7957747E-01  0.1318888E+00
        1   -1    0    0  501    0  0.00000000000E+00  0.00000000000E+00  0.46911932649E+01  0.46911932649E+01  0.00000000000E+00 0. -1.
       -2   -1    0    0    0  501  0.00000000000E+00  0.00000000000E+00 -0.36992363380E+03  0.36992363380E+03  0.00000000000E+00 0.  1.
      -24    2    1    2    0    0  0.00000000000E+00  0.00000000000E+00 -0.36523244053E+03  0.37461482706E+03  0.83315863060E+02 0.  0.
       11    1    3    3    0    0  0.22978718471E+02  0.85815657838E+01 -0.31221796602E+02  0.39704727136E+02  0.00000000000E+00 0. -1.
      -12    1    3    3    0    0 -0.22978718471E+02 -0.85815657838E+01 -0.33401064393E+03  0.33491009993E+03  0.00000000000E+00 0.  1.
</event>
<event>
 5   1  0.6181100E+00  0.8225644E+02  0.7957747E-01  0.1321610E+00
        1   -1    0    0  501    0  0.00000000000E+00  0.00000000000E+00  0.20075040407E+03  0.20075040407E+03  0.00000000000E+00 0. -1.
       -2   -1    0    0    0  501  0.00000000000E+00  0.00000000000E+00 -0.84260369294E+01  0.84260369294E+01  0.00000000000E+00 0.  1.
      -24    2    1    2    0    0  0.00000000000E+00  0.00000000000E+00  0.19232436714E+03  0.20917644100E+03  0.82256436058E+02 0.  0.
       11    1    3    3    0    0  0.14125447255E+02 -0.37667762634E+02  0.11791049053E+03  0.12458439862E+03  0.00000000000E+00 0. -1.
      -12    1    3    3    0    0 -0.14125447255E+02  0.37667762634E+02  0.74413876609E+02  0.84592042380E+02  0.00000000000E+00 0.  1.
</event>
<event>
 6   2  0.6181100E+00  0.9273213E+02  0.7957747E-01  0.1296547E+00
       21   -1    0    0  501  502  0.00000000000E+00  0.00000000000E+00  0.98740732121E+02  0.98740732121E+02  0.00000000000E+00 0.  1.
        3   -1    0    0  502    0  0.00000000000E+00  0.00000000000E+00 -0.45128069728E+02  0.45128069728E+02  0.00000000000E+00 0. -1.
      -24    2    1    2    0    0 -0.37767106644E+02  0.13597027345E+02  0.43751564574E+02  0.10253510195E+03  0.83594343308E+02 0.  0.
       11    1    3    3    0    0 -0.10190379331E+02 -0.35061195585E+02  0.21275532001E+02  0.42258484694E+02  0.00000000000E+00 0. -1.
      -12    1    3    3    0    0 -0.27576727313E+02  0.48658222930E+02  0.22476032574E+02  0.60276617259E+02  0.00000000000E+00 0.  1.
        4    1    1    2  501    0  0.37767106644E+02 -0.13597027345E+02  0.98610978183E+01  0.41333699896E+02  0.00000000000E+00 0. -1.
</event>
<event>
 5   1  0.6181100E+00  0.7899739E+02  0.7957747E-01  0.1330283E+00
       -2   -1    0    0    0  501  0.00000000000E+00  0.00000000000E+00  0.64378411912E+02  0.64378411912E+02  0.00000000000E+00 0.  1.
        1   -1    0    0  501    0  0.00000000000E+00  0.00000000000E+00 -0.24234008148E+02  0.24234008148E+02  0.00000000000E+00 0. -1.
      -24    2    1    2    0    0  0.00000000000E+00  0.00000000000E+00  0.40144403764E+02  0.88612420061E+02  0.78997391320E+02 0.  0.
       11    1    3    3    0    0 -0.18131739936E+02 -0.33661097176E+02  0.89498337169E+01  0.39267403527E+02  0.00000000000E+00 0. -1.
      -12    1    3    3    0    0  0.18131739936E+02  0.33661097176E+02  0.31194570047E+02  0.49345016533E+02  0.00000000000E+00 0.  1.
</event>
<event>
 5   1  0.6181100E+00  0.8071192E+02  0.7957747E-01  0.1325662E+00
        1   -1    0    0  501    0  0.00000000000E+00  0.00000000000E+00  0.17964031039E+02  0.17964031039E+02  0.00000000000E+00 0. -1.
       -2   -1    0    0    0  501  0.00000000000E+00  0.00000000000E+00 -0.90659138256E+02  0.90659138256E+02  0.00000000000E+00 0.  1.
      -24    2    1    2    0    0  0.00000000000E+00  0.00000000000E+00 -0.72695107217E+02  0.10862316929E+03  0.80711921637E+02 0.  0.
       11    1    3    3    0    0 -0.21524965646E+02  0.33265775702E+02 -0.26039327804E+02  0.47412894571E+02  0.00000000000E+00 0. -1.
      -12    1    3    3    0    0  0.21524965646E+02 -0.33265775702E+02 -0.46655779413E+02  0.61210274724E+02  0.00000000000E+00 0.  1.
</event>
<event>
 6   2  0.6181100E+00  0.9987133E+02  0.7957747E-01  0.1281510E+00
       21   -1    0    0  501  502  0.00000000000E+00  0.00000000000E+00  0.31133514905E+02  0.31133514905E+02  0.00000000000E+00 0. -1.
        1   -1    0    0  502    0  0.00000000000E+00  0.00000000000E+00 -0.20564878284E+03  0.20564878284E+03  0.00000000000E+00 0. -1.
      -24    2    1    2    0    0  0.58529324629E+02 -0.66373352171E+01 -0.12373176561E+03  0.15900890789E+03  0.80650771284E+02 0.  0.
       11    1    3    3    0    0  0.47424198504E+02  0.33000388720E+02 -0.61379518724E+02  0.84294279630E+02  0.00000000000E+00 0. -1.
      -12    1    3    3    0    0  0.11105126125E+02 -0.39637723937E+02 -0.62352246884E+02  0.74714628264E+02  0.00000000000E+00 0.  1.
        2    1    1    2  501    0 -0.58529324629E+02  0.66373352171E+01 -0.50783502323E+02  0.77773389848E+02  0.00000000000E+00 0. -1.
</event>
<event>
 5   1  0.6181100E+00  0.8025250E+02  0.7957747E-01  0.1326887E+00
        1   -1    0    0  501    0  0.00000000000E+00  0.00000000000E+00  0.59147555003E+01  0.59147555003E+01  0.00000000000E+00 0. -1.
       -2   -1    0    0    0  501  0.00000000000E+00  0.00000000000E+00 -0.27222019905E+03  0.27222019905E+03  0.00000000000E+00 0.  1.
      -24    2    1    2    0    0  0.00000000000E+00  0.00000000000E+00 -0.26630544355E+03  0.27813495455E+03  0.80252499516E+02 0.  0.
       11    1    3    3    0    0 -0.21958439423E+02  0.56705918652E+01 -0.18427177936E+02  0.29221388753E+02  0.00000000000E+00 0. -1.
      -12    1    3    3    0    0  0.21958439423E+02 -0.56705918652E+01 -0.24787826561E+03  0.24891356580E+03  0.00000000000E+00 0.  1.
</event>
<event>
 5   1  0.6181100E+00  0.7494271E+02  0.7957747E-01  0.1341758E+00
        1   -1    0    0  501    0  0.00000000000E+00  0.00000000000E+00  0.13779049194E+01  0.13779049194E+01  0.00000000000E+00 0. -1.
       -2   -1    0    0    0  501  0.00000000000E+00  0.00000000000E+00 -0.10190125019E+04  0.10190125019E+04  0.00000000000E+00 0.  1.
      -24    2    1    2    0    0  0.00000000000E+00  0.00000000000E+00 -0.10176345970E+04  0.10203904068E+04  0.74942707166E+02 0.  0.
       11    1    3    3    0    0 -0.12179269691E+02  0.20906483549E+02 -0.11923801843E+03  0.12166807594E+03  0.00000000000E+00 0. -1.
      -12    1    3    3    0    0  0.12179269691E+02 -0.20906483549E+02 -0.89839657855E+03  0.89872233088E+03  0.00000000000E+00 0.  1.
</event>
<event>
 5   1  0.6181100E+00  0.7902543E+02  0.7957747E-01  0.1330206E+00
       -4   -1    0    0    0  501  0.00000000000E+00  0.00000000000E+00  0.10700123807E+03  0.10700123807E+03  0.00000000000E+00 0.  1.
        3   -1    0    0  501    0  0.00000000000E+00  0.00000000000E+00 -0.14590997302E+02  0.14590997302E+02  0.00000000000E+00 0. -1.
      -24    2    1    2    0    0  0.00000000000E+00  0.00000000000E+00  0.92410240771E+02  0.12159223538E+03  0.79025433274E+02 0.  0.
       11    1    3    3    0    0 -0.36769896035E+02 -0.12586779680E+02  0.57171960062E+02  0.69130928639E+02  0.00000000000E+00 0. -1.
      -12    1    3    3    0    0  0.36769896035E+02  0.12586779680E+02  0.35238280710E+02  0.52461306737E+02  0.00000000000E+00 0.  1.
</event>
<event>
 5   1  0.6181100E+00  0.7572346E+02  0.7957747E-01  0.1339485E+00
        1   -1    0    0  501    0  0.00000000000E+00  0.00000000000E+00  0.28838490777E+03  0.28838490777E+03  0.00000000000E+00 0. -1.
       -2   -1    0    0    0  501  0.00000000000E+00  0.00000000000E+00 -0.49708240274E+01  0.49708240274E+01  0.00000000000E+00 0.  1.
      -24    2    1    2    0    0  0.00000000000E+00  0.00000000000E+00  0.28341408374E+03  0.29335573179E+03  0.75723460794E+02 0.  0.
       11    1    3    3    0    0  0.17123146996E+02 -0.29885790566E+02  0.20261059964E+03  0.20551743899E+03  0.00000000000E+00 0. -1.
      -12    1    3    3    0    0 -0.17123146996E+02  0.29885790566E+02  0.80803484095E+02  0.87838292804E+02  0.00000000000E+00 0.  1.
</event>
<event>
 5   1  0.6181100E+00  0.8217922E+02  0.7957747E-01  0.1321810E+00
        1   -1    0    0  501    0  0.00000000000E+00  0.00000000000E+00  0.15432836302E+02  0.15432836302E+02  0.00000000000E+00 0. -1.
       -2   -1    0    0    0  501  0.00000000000E+00  0.00000000000E+00 -0.10940024599E+03  0.10940024599E+03  0.00000000000E+00 0.  1.
      -24    2    1    2    0    0  0.00000000000E+00  0.00000000000E+00 -0.93967409690E+02  0.12483308229E+03  0.82179220920E+02 0.  0.
       11    1    3    3    0    0 -0.32505942114E+02  0.25034658795E+02 -0.43591909702E+02  0.59863386182E+02  0.00000000000E+00 0. -1.
      -12    1    3    3    0    0  0.32505942114E+02 -0.25034658795E+02 -0.50375499988E+02  0.64969696111E+02  0.00000000000E+00 0.  1.
</event>
<event>
 4   3  0.6181100E+00  0.2618013E+03  0.7957747E-01  0.1113686E+00
       21   -1    0    0  501  502  0.00000000000E+00  0.00000000000E+00  0.62930704949E+02  0.62930704949E+02  0.00000000000E+00 0.  1.
       21   -1    0    0  502  503  0.00000000000E+00  0.00000000000E+00 -0.16298145123E+04  0.16298145123E+04  0.00000000000E+00 0. -1.
        6    1    1    2  501    0  0.17619147012E+03 -0.86991217717E+02 -0.29595463491E+03  0.39513168947E+03  0.17300000000E+03 0. -1.
       -6    1    1    2    0  503 -0.17619147012E+03  0.86991217717E+02 -0.12709291724E+04  0.12976135277E+04  0.17300000000E+03 0.  1.
</event>
<event>
 5   1  0.6181100E+00  0.8258264E+02  0.7957747E-01  0.1320767E+00
        3   -1    0    0  501    0  0.00000000000E+00  0.00000000000E+00  0.62195607051E+02  0.62195607051E+02  0.00000000000E+00 0. -1.
       -4   -1    0    0    0  501  0.00000000000E+00  0.00000000000E+00 -0.27413078817E+02  0.27413078817E+02  0.00000000000E+00 0.  1.
      -24    2    1    2    0    0  0.00000000000E+00  0.00000000000E+00  0.34782528233E+02  0.89608685868E+02  0.82582639294E+02 0.  0.
       11    1    3    3    0    0 -0.27488034403E+02  0.54448250772E+01  0.50298597295E+02  0.57577660992E+02  0.00000000000E+00 0. -1.
      -12    1    3    3    0    0  0.27488034403E+02 -0.54448250772E+01 -0.15516069062E+02  0.32031024876E+02  0.00000000000E+00 0.  1.
</event>
<event>
 5   1  0.6181100E+00  0.1014383E+03  0.7957747E-01  0.1278398E+00
       -2   -1    0    0    0  501  0.00000000000E+00  0.00000000000E+00  0.37154245825E+01  0.37154245825E+01  0.00000000000E+00 0.  1.
        1   -1    0    0  501    0  0.00000000000E+00  0.00000000000E+00 -0.69236591757E+03  0.69236591757E+03  0.00000000000E+00 0. -1.
      -24    2    1    2    0    0  0.00000000000E+00  0.00000000000E+00 -0.68865049299E+03  0.69608134216E+03  0.10143832314E+03 0.  0.
       11    1    3    3    0    0  0.68778700783E+01  0.45085503147E+02 -0.19205036532E+03  0.19739136382E+03  0.00000000000E+00 0. -1.
      -12    1    3    3    0    0 -0.68778700783E+01 -0.45085503147E+02 -0.49660012767E+03  0.49868997834E+03  0.00000000000E+00 0.  1.
</event>
<event>
 5   1  0.6181100E+00  0.8130443E+02  0.7957747E-01  0.1324096E+00
        3   -1    0    0  501    0  0.00000000000E+00  0.00000000000E+00  0.21922145839E+02  0.21922145839E+02  0.00000000000E+00 0. -1.
       -4   -1    0    0    0  501  0.00000000000E+00  0.00000000000E+00 -0.75385064997E+02  0.75385064997E+02  0.00000000000E+00 0.  1.
      -24    2    1    2    0    0  0.00000000000E+00  0.00000000000E+00 -0.53462919158E+02  0.97307210837E+02  0.81304425193E+02 0.  0.
       11    1    3    3    0    0 -0.12974426691E+00  0.40572228896E+02 -0.29778032432E+02  0.50327465729E+02  0.00000000000E+00 0. -1.
      -12    1    3    3    0    0  0.12974426691E+00 -0.40572228896E+02 -0.23684886726E+02  0.46979745108E+02  0.00000000000E+00 0.  1.
</event>
<event>
 5   1  0.6181100E+00  0.6611620E+02  0.7957747E-01  0.1369862E+00
        3   -1    0    0  501    0  0.00000000000E+00  0.00000000000E+00  0.61006820145E+01  0.61006820145E+01  0.00000000000E+00 0. -1.
       -4   -1    0    0    0  501  0.00000000000E+00  0.00000000000E+00 -0.17913373193E+03  0.17913373193E+03  0.00000000000E+00 0.  1.
      -24    2    1    2    0    0  0.00000000000E+00  0.00000000000E+00 -0.17303304992E+03  0.18523441395E+03  0.66116198820E+02 0.  0.
       11    1    3    3    0    0  0.21522567886E+02 -0.17576060174E+02 -0.36344378577E+02  0.45749892610E+02  0.00000000000E+00 0. -1.
      -12    1    3    3    0    0 -0.21522567886E+02  0.17576060174E+02 -0.13668867134E+03  0.13948452134E+03  0.00000000000E+00 0.  1.
</event>
<event>
 5   1  0.6181100E+00  0.8235102E+02  0.7957747E-01  0.1321365E+00
       -2   -1    0    0    0  501  0.00000000000E+00  0.00000000000E+00  0.10307566802E+04  0.10307566802E+04  0.00000000000E+00 0.  1.
        1   -1    0    0  501    0  0.00000000000E+00  0.00000000000E+00 -0.16448331865E+01  0.16448331865E+01  0.00000000000E+00 0. -1.
      -24    2    1    2    0    0  0.00000000000E+00  0.00000000000E+00  0.10291118470E+04  0.10324015134E+04  0.82351024153E+02 0.  0.
       11    1    3    3    0    0  0.35298068272E+01 -0.18000640572E+02  0.52409282816E+02  0.55526709991E+02  0.00000000000E+00 0. -1.
      -12    1    3    3    0    0 -0.35298068272E+01  0.18000640572E+02  0.97670256417E+03  0.97687480337E+03  0.00000000000E+00 0.  1.
</event>
<event>
 5   1  0.6181100E+00  0.8346795E+02  0.7957747E-01  0.1318501E+00
       -2   -1    0    0    0  501  0.00000000000E+00  0.00000000000E+00  0.16252616726E+03  0.16252616726E+03  0.00000000000E+00 0.  1.
        1   -1    0    0  501    0  0.00000000000E+00  0.00000000000E+00 -0.10716580238E+02  0.10716580238E+02  0.00000000000E+00 0. -1.
      -24    2    1    2    0    0  0.00000000000E+00  0.00000000000E+00  0.15180958702E+03  0.17324274750E+03  0.83467951029E+02 0.  0.
       11    1    3    3    0    0  0.12318099653E+02 -0.19844293297E+02  0.41194195939E+01  0.23717107187E+02  0.00000000000E+00 0. -1.
      -12    1    3    3    0    0 -0.12318099653E+02  0.19844293297E+02  0.14769016743E+03  0.14952564031E+03  0.00000000000E+00 0.  1.
</event>
<event>
 5   1  0.6181100E+00  0.8080109E+02  0.7957747E-01  0.1325426E+00
        1   -1    0    0  501    0  0.00000000000E+00  0.00000000000E+00  0.73857070542E+01  0.73857070542E+01  0.00000000000E+00 0. -1.
       -2   -1    0    0    0  501  0.00000000000E+00  0.00000000000E+00 -0.22099497440E+03  0.22099497440E+03  0.00000000000E+00 0.  1.
      -24    2    1    2    0    0  0.00000000000E+00  0.00000000000E+00 -0.21360926734E+03  0.22838068145E+03  0.80801092600E+02 0.  0.
       11    1    3    3    0    0  0.50902964073E+01 -0.30386571549E+02 -0.32940031841E+02  0.45103221012E+02  0.00000000000E+00 0. -1.
      -12    1    3    3    0    0 -0.50902964073E+01  0.30386571549E+02 -0.18066923550E+03  0.18327746044E+03  0.00000000000E+00 0.  1.
</event>
<event>
 5   1  0.6181100E+00  0.7510843E+02  0.7957747E-01  0.1341273E+00
        3   -1    0    0  501    0  0.00000000000E+00  0.00000000000E+00  0.18204396769E+02  0.18204396769E+02  0.00000000000E+00 0. -1.
       -4   -1    0    0    0  501  0.00000000000E+00  0.00000000000E+00 -0.77471333092E+02  0.77471333092E+02  0.00000000000E+00 0.  1.
      -24    2    1    2    0    0  0.00000000000E+00  0.00000000000E+00 -0.59266936322E+02  0.95675729861E+02  0.75108425249E+02 0.  0.
       11    1    3    3    0    0  0.94409640319E+01  0.25403923095E+02  0.34820188011E+01  0.27324266969E+02  0.00000000000E+00 0. -1.
      -12    1    3    3    0    0 -0.94409640319E+01 -0.25403923095E+02 -0.62748955123E+02  0.68351462892E+02  0.00000000000E+00 0.  1.
</event>
<event>
 5   1  0.6181100E+00  0.6776798E+02  0.7957747E-01  0.1364235E+00
       -2   -1    0    0    0  501  0.00000000000E+00  0.00000000000E+00  0.19987124037E+02  0.19987124037E+02  0.00000000000E+00 0.  1.
        1   -1    0    0  501    0  0.00000000000E+00  0.00000000000E+00 -0.57443229127E+02  0.57443229127E+02  0.00000000000E+00 0. -1.
      -24    2    1    2    0    0  0.00000000000E+00  0.00000000000E+00 -0.37456105090E+02  0.77430353164E+02  0.67767984938E+02 0.  0.
       11    1    3    3    0    0  0.10382523006E+02 -0.20983447788E+02 -0.46715973977E+02  0.52254034195E+02  0.00000000000E+00 0. -1.
      -12    1    3    3    0    0 -0.10382523006E+02  0.20983447788E+02  0.92598688867E+01  0.25176318969E+02  0.00000000000E+00 0.  1.
</event>
<event>
 4   3  0.6181100E+00  0.2300425E+03  0.7957747E-01  0.1133607E+00
       21   -1    0    0  501  502  0.00000000000E+00  0.00000000000E+00  0.78006319912E+03  0.78006319912E+03  0.00000000000E+00 0. -1.
       21   -1    0    0  502  503  0.00000000000E+00  0.00000000000E+00 -0.24486329765E+03  0.24486329765E+03  0.00000000000E+00 0. -1.
        6    1    1    2  501    0 -0.14943428522E+03 -0.25689448551E+02  0.70332847155E+03  0.73999357582E+03  0.17300000000E+03 0. -1.
       -6    1    1    2    0  503  0.14943428522E+03  0.25689448551E+02 -0.16812857007E+03  0.28493292095E+03  0.17300000000E+03 0. -1.
</event>
<event>
 5   1  0.6181100E+00  0.7978591E+02  0.7957747E-01  0.1328141E+00
        1   -1    0    0  501    0  0.00000000000E+00  0.00000000000E+00  0.99129416857E+01  0.99129416857E+01  0.00000000000E+00 0. -1.
       -2   -1    0    0    0  501  0.00000000000E+00  0.00000000000E+00 -0.16054244398E+03  0.16054244398E+03  0.00000000000E+00 0.  1.
      -24    2    1    2    0    0  0.00000000000E+00  0.00000000000E+00 -0.15062950229E+03  0.17045538566E+03  0.79785910667E+02 0.  0.
       11    1    3    3    0    0  0.16367783751E+02  0.17864099906E+02 -0.76064914573E+01  0.25394667209E+02  0.00000000000E+00 0. -1.
      -12    1    3    3    0    0 -0.16367783751E+02 -0.17864099906E+02 -0.14302301084E+03  0.14506071846E+03  0.00000000000E+00 0.  1.
</event>
<event>
 5   1  0.6181100E+00  0.8073350E+02  0.7957747E-01  0.1325605E+00
        1   -1    0    0  501    0  0.00000000000E+00  0.00000000000E+00  0.66508901183E+02  0.66508901183E+02  0.00000000000E+00 0. -1.
       -2   -1    0    0    0  501  0.00000000000E+00  0.00000000000E+00 -0.24500096397E+02  0.24500096397E+02  0.00000000000E+00 0.  1.
      -24    2    1    2    0    0  0.00000000000E+00  0.00000000000E+00  0.42008804786E+02  0.91008997580E+02  0.80733499621E+02 0.  0.
       11    1    3    3    0    0 -0.98141214678E+01  0.21486190698E+02  0.57904444928E+02  0.62537173852E+02  0.00000000000E+00 0. -1.
      -12    1    3    3    0    0  0.98141214678E+01 -0.21486190698E+02 -0.15895640142E+02  0.28471823729E+02  0.00000000000E+00 0.  1.
</event>
<event>
 6   2  0.6181100E+00  0.8554684E+02  0.7957747E-01  0.1313303E+00
        3   -1    0    0  502    0  0.00000000000E+00  0.00000000000E+00  0.46075062407E+02  0.46075062407E+02  0.00000000000E+00 0. -1.
       21   -1    0    0  501  502  0.00000000000E+00  0.00000000000E+00 -0.74409185819E+02  0.74409185819E+02  0.00000000000E+00 0.  1.
      -24    2    1    2    0    0  0.84140688332E+01 -0.27912069551E+02 -0.31495883257E+02  0.91160590435E+02  0.80426254453E+02 0.  0.
       11    1    3    3    0    0  0.13735078434E+02 -0.17733721972E+02  0.24954363388E+02  0.33553800480E+02  0.00000000000E+00 0. -1.
      -12    1    3    3    0    0 -0.53210096012E+01 -0.10178347579E+02 -0.56450246645E+02  0.57606789955E+02  0.00000000000E+00 0.  1.
        4    1    1    2  501    0 -0.84140688332E+01  0.27912069551E+02  0.31617598448E+01  0.29323657791E+02  0.00000000000E+00 0. -1.
</event>
<event>
 5   1  0.6181100E+00  0.5907527E+02  0.7957747E-01  0.1396139E+00
       -4   -1    0    0    0  501  0.00000000000E+00  0.00000000000E+00  0.25963549215E+03  0.25963549215E+03  0.00000000000E+00 0.  1.
        3   -1    0    0  501    0  0.00000000000E+00  0.00000000000E+00 -0.33603721956E+01  0.33603721956E+01  0.00000000000E+00 0. -1.
      -24    2    1    2    0    0  0.00000000000E+00  0.00000000000E+00  0.25627511995E+03  0.26299586434E+03  0.59075270251E+02 0.  0.
       11    1    3    3    0    0 -0.16318378191E+02  0.24083279737E+02  0.10535975216E+03  0.10930220128E+03  0.00000000000E+00 0. -1.
      -12    1    3    3    0    0  0.16318378191E+02 -0.24083279737E+02  0.15091536779E+03  0.15369366306E+03  0.00000000000E+00 0.  1.
</event>
<event>
 5   1  0.6181100E+00  0.8056295E+02  0.7957747E-01  0.1326059E+00
       -2   -1    0    0    0  501  0.00000000000E+00  0.00000000000E+00  0.94061755832E+02  0.94061755832E+02  0.00000000000E+00 0.  1.
        1   -1    0    0  501    0  0.00000000000E+00  0.00000000000E+00 -0.17250338574E+02  0.17250338574E+02  0.00000000000E+00 0. -1.
      -24    2    1    2    0    0  0.00000000000E+00  0.00000000000E+00  0.76811417259E+02  0.11131209441E+03  0.80562947686E+02 0.  0.
       11    1    3    3    0    0 -0.17136429761E+02 -0.18974496425E+02 -0.46022041015E+01  0.25978241320E+02  0.00000000000E+00 0. -1.
      -12    1    3    3    0    0  0.17136429761E+02  0.18974496425E+02  0.81413621360E+02  0.85333853086E+02  0.00000000000E+00 0.  1.
</event>
<event>
 5   1  0.6181100E+00  0.7910273E+02  0.7957747E-01  0.1329995E+00
        3   -1    0    0  501    0  0.00000000000E+00  0.00000000000E+00  0.25881124630E+02  0.25881124630E+02  0.00000000000E+00 0. -1.
       -4   -1    0    0    0  501  0.00000000000E+00  0.00000000000E+00 -0.60442138545E+02  0.60442138545E+02  0.00000000000E+00 0.  1.
      -24    2    1    2    0    0  0.00000000000E+00  0.00000000000E+00 -0.34561013915E+02  0.86323263175E+02  0.79102731194E+02 0.  0.
       11    1    3    3    0    0  0.17327127176E+02  0.24819223501E+02  0.10500829595E+02  0.32038892202E+02  0.00000000000E+00 0. -1.
      -12    1    3    3    0    0 -0.17327127176E+02 -0.24819223501E+02 -0.45061843510E+02  0.54284370973E+02  0.00000000000E+00 0.  1.
</event>
<event>
 4   1  0.6181100E+00  0.4861158E+02  0.7957747E-01  0.1444099E+00
        1   -1    0    0  501    0  0.00000000000E+00  0.00000000000E+00  0.29360159025E+02  0.29360159025E+02  0.00000000000E+00 0. -1.
       -2   -1    0    0    0  501  0.00000000000E+00  0.00000000000E+00 -0.20121533793E+02  0.20121533793E+02  0.00000000000E+00 0.  1.
       11    1    1    2    0    0 -0.22426777638E+02  0.93524810260E+01  0.40238846696E+01  0.24629675280E+02  0.00000000000E+00 0. -1.
      -12    1    1    2    0    0  0.22426777638E+02 -0.93524810260E+01  0.52147405629E+01  0.24852017538E+02  0.00000000000E+00 0.  1.
</event>
<event>
 5   1  0.6181100E+00  0.8302739E+02  0.7957747E-01  0.1319625E+00
        1   -1    0    0  501    0  0.00000000000E+00  0.00000000000E+00  0.62568508035E+03  0.62568508035E+03  0.00000000000E+00 0. -1.
       -2   -1    0    0    0  501  0.00000000000E+00  0.00000000000E+00 -0.27543998156E+01  0.27543998156E+01  0.00000000000E+00 0.  1.
      -24    2    1    2    0    0  0.00000000000E+00  0.00000000000E+00  0.62293068053E+03  0.62843948016E+03  0.83027389937E+02 0.  0.
       11    1    3    3    0    0 -0.38424908536E+02 -0.42681766852E+01  0.19700071149E+03  0.20075848987E+03  0.00000000000E+00 0. -1.
      -12    1    3    3    0    0  0.38424908536E+02  0.42681766852E+01  0.42592996904E+03  0.42768099029E+03  0.00000000000E+00 0.  1.
</event>
<event>
 4   3  0.6181100E+00  0.1959963E+03  0.7957747E-01  0.1159291E+00
       21   -1    0    0  503  502  0.00000000000E+00  0.00000000000E+00  0.94544189017E+02  0.94544189017E+02  0.00000000000E+00 0.  1.
       21   -1    0    0  501  503  0.00000000000E+00  0.00000000000E+00 -0.47401871606E+03  0.47401871606E+03  0.00000000000E+00 0.  1.
        6    1    1    2  501    0 -0.15584837547E+02 -0.90789083662E+02 -0.82297993620E+02  0.21257352758E+03  0.17300000000E+03 0.  1.
       -6    1    1    2    0  502  0.15584837547E+02  0.90789083662E+02 -0.29717653342E+03  0.35598937750E+03  0.17300000000E+03 0.  1.
</event>
<event>
 5   1  0.6181100E+00  0.8037562E+02  0.7957747E-01  0.1326558E+00
        1   -1    0    0  501    0  0.00000000000E+00  0.00000000000E+00  0.30429368977E+02  0.30429368977E+02  0.00000000000E+00 0. -1.
       -2   -1    0    0    0  501  0.00000000000E+00  0.00000000000E+00 -0.53075694369E+02  0.53075694369E+02  0.00000000000E+00 0.  1.
      -24    2    1    2    0    0  0.00000000000E+00  0.00000000000E+00 -0.22646325392E+02  0.83505063346E+02  0.80375615398E+02 0.  0.
       11    1    3    3    0    0  0.36879422523E+02  0.11309377815E+02  0.38808786762E+00  0.38576475271E+02  0.00000000000E+00 0. -1.
      -12    1    3    3    0    0 -0.36879422523E+02 -0.11309377815E+02 -0.23034413260E+02  0.44928588075E+02  0.00000000000E+00 0.  1.
</event>
<event>
 6   2  0.6181100E+00  0.9357684E+02  0.7957747E-01  0.1294689E+00
       21   -1    0    0  501  502  0.00000000000E+00  0.00000000000E+00  0.65819251358E+02  0.65819251358E+02  0.00000000000E+00 0.  1.
        1   -1    0    0  502    0  0.00000000000E+00  0.00000000000E+00 -0.71426585869E+02  0.71426585869E+02  0.00000000000E+00 0. -1.
      -24    2    1    2    0    0 -0.28918609252E+02 -0.31271258947E+02 -0.11368226744E+02  0.94264847516E+02  0.83321349608E+02 0.  0.
       11    1    3    3    0    0 -0.19338296655E+02  0.23107922968E+02 -0.22912838654E+02  0.37854246744E+02  0.00000000000E+00 0. -1.
      -12    1    3    3    0    0 -0.95803125976E+01 -0.54379181915E+02  0.11544611910E+02  0.56410600771E+02  0.00000000000E+00 0.  1.
        2    1    1    2  501    0  0.28918609252E+02  0.31271258947E+02  0.57608922327E+01  0.42980989711E+02  0.00000000000E+00 0. -1.
</event>
<event>
 5   1  0.6181100E+00  0.7810639E+02  0.7957747E-01  0.1332736E+00
        1   -1    0    0  501    0  0.00000000000E+00  0.00000000000E+00  0.30443579152E+01  0.30443579152E+01  0.00000000000E+00 0. -1.
       -2   -1    0    0    0  501  0.00000000000E+00  0.00000000000E+00 -0.50097659489E+03  0.50097659489E+03  0.00000000000E+00 0.  1.
      -24    2    1    2    0    0  0.00000000000E+00  0.00000000000E+00 -0.49793223697E+03  0.50402095280E+03  0.78106390570E+02 0.  0.
       11    1    3    3    0    0  0.30859689392E+02  0.16622523415E+02 -0.13784631372E+03  0.14223303035E+03  0.00000000000E+00 0. -1.
      -12    1    3    3    0    0 -0.30859689392E+02 -0.16622523415E+02 -0.36008592325E+03  0.36178792246E+03  0.00000000000E+00 0.  1.
</event>
<event>
 4   3  0.6181100E+00  0.1998869E+03  0.7957747E-01  0.1156077E+00
       -2   -1    0    0    0  501  0.00000000000E+00  0.00000000000E+00  0.41927058062E+02  0.41927058062E+02  0.00000000000E+00 0.  1.
        2   -1    0    0  502    0  0.00000000000E+00  0.00000000000E+00 -0.18703257091E+04  0.18703257091E+04  0.00000000000E+00 0. -1.
        6    1    1    2  502    0 -0.16631271591E+02 -0.98737982741E+02 -0.15838187593E+04  0.15963823635E+04  0.17300000000E+03 0. -1.
       -6    1    1    2    0  501  0.16631271591E+02  0.98737982741E+02 -0.24457989183E+03  0.31587040367E+03  0.17300000000E+03 0.  1.
</event>
<event>
 5   1  0.6181100E+00  0.7902403E+02  0.7957747E-01  0.1330210E+00
       -4   -1    0    0    0  501  0.00000000000E+00  0.00000000000E+00  0.95317579075E+01  0.95317579075E+01  0.00000000000E+00 0.  1.
        3   -1    0    0  501    0  0.00000000000E+00  0.00000000000E+00 -0.16378921469E+03  0.16378921469E+03  0.00000000000E+00 0. -1.
      -24    2    1    2    0    0  0.00000000000E+00  0.00000000000E+00 -0.15425745678E+03  0.17332097259E+03  0.79024025264E+02 0.  0.
       11    1    3    3    0    0 -0.34453174198E+02  0.38259087715E+01 -0.11871651332E+03  0.12367404467E+03  0.00000000000E+00 0. -1.
      -12    1    3    3    0    0  0.34453174198E+02 -0.38259087715E+01 -0.35540943456E+02  0.49646927921E+02  0.00000000000E+00 0.  1.
</event>
<event>
 5   1  0.6181100E+00  0.7801990E+02  0.7957747E-01  0.1332976E+00
        1   -1    0    0  501    0  0.00000000000E+00  0.00000000000E+00  0.96125744759E+01  0.96125744759E+01  0.00000000000E+00 0. -1.
       -2   -1    0    0    0  501  0.00000000000E+00  0.00000000000E+00 -0.15831097649E+03  0.15831097649E+03  0.00000000000E+00 0.  1.
      -24    2    1    2    0    0  0.00000000000E+00  0.00000000000E+00 -0.14869840201E+03  0.16792355096E+03  0.78019896227E+02 0.  0.
       11    1    3    3    0    0 -0.34976940808E+02 -0.16499481162E+02 -0.63341454444E+02  0.74214278397E+02  0.00000000000E+00 0. -1.
      -12    1    3    3    0    0  0.34976940808E+02  0.16499481162E+02 -0.85356947566E+02  0.93709272565E+02  0.00000000000E+00 0.  1.
</event>
<event>
 5   1  0.6181100E+00  0.8324968E+02  0.7957747E-01  0.1319057E+00
       -2   -1    0    0    0  501  0.00000000000E+00  0.00000000000E+00  0.69313687425E+03  0.69313687425E+03  0.00000000000E+00 0.  1.
        1   -1    0    0  501    0  0.00000000000E+00  0.00000000000E+00 -0.24996899272E+01  0.24996899272E+01  0.00000000000E+00 0. -1.
      -24    2    1    2    0    0  0.00000000000E+00  0.00000000000E+00  0.69063718432E+03  0.69563656418E+03  0.83249678984E+02 0.  0.
       11    1    3    3    0    0  0.10069829256E+02  0.24097910546E+00  0.78377342330E+01  0.12762821400E+02  0.00000000000E+00 0. -1.
      -12    1    3    3    0    0 -0.10069829256E+02 -0.24097910546E+00  0.68279945009E+03  0.68287374278E+03  0.00000000000E+00 0.  1.
</event>
<event>
 4   1  0.6181100E+00  0.2863311E+02  0.7957747E-01  0.1592638E+00
       -2   -1    0    0    0  501  0.00000000000E+00  0.00000000000E+00  0.25864398373E+03  0.25864398373E+03  0.00000000000E+00 0.  1.
        1   -1    0    0  501    0  0.00000000000E+00  0.00000000000E+00 -0.79245515622E+00  0.79245515622E+00  0.00000000000E+00 0. -1.
       11    1    1    2    0    0 -0.11881761814E+02  0.37854108525E+01  0.65204935538E+02  0.66386664456E+02  0.00000000000E+00 0. -1.
      -12    1    1    2    0    0  0.11881761814E+02 -0.37854108525E+01  0.19264659304E+03  0.19304977443E+03  0.00000000000E+00 0.  1.
</event>
<event>
 4   3  0.6181100E+00  0.2834886E+03  0.7957747E-01  0.1101770E+00
       21   -1    0    0  501  502  0.00000000000E+00  0.00000000000E+00  0.25770396080E+03  0.25770396080E+03  0.00000000000E+00 0.  1.
       21   -1    0    0  502  503  0.00000000000E+00  0.00000000000E+00 -0.33177556444E+03  0.33177556444E+03  0.00000000000E+00 0. -1.
        6    1    1    2  501    0 -0.15796509990E+03 -0.15963647474E+03  0.35189298612E+02  0.28566424976E+03  0.17300000000E+03 0. -1.
       -6    1    1    2    0  503  0.15796509990E+03  0.15963647474E+03 -0.10926090225E+03  0.30381527548E+03  0.17300000000E+03 0.  1.
</event>
<event>
 6   2  0.6181100E+00  0.8528487E+02  0.7957747E-01  0.1313949E+00
       -2   -1    0    0    0  501  0.00000000000E+00  0.00000000000E+00  0.23708678034E+02  0.23708678034E+02  0.00000000000E+00 0.  1.
        1   -1    0    0  502    0  0.00000000000E+00  0.00000000000E+00 -0.37227755596E+03  0.37227755596E+03  0.00000000000E+00 0. -1.
      -24    2    1    2    0    0 -0.26645396741E+01  0.28060021130E+02 -0.55919985038E+02  0.10198310635E+03  0.80492513292E+02 0.  0.
       11    1    3    3    0    0 -0.23412893025E+02  0.23881142507E+02 -0.69297008144E+02  0.76945096432E+02  0.00000000000E+00 0. -1.
      -12    1    3    3    0    0  0.20748353351E+02  0.41788786230E+01  0.13377023106E+02  0.25038009915E+02  0.00000000000E+00 0.  1.
       21    1    1    2  502  501  0.26645396741E+01 -0.28060021130E+02 -0.29264889288E+03  0.29400312764E+03  0.00000000000E+00 0. -1.
</event>
<event>
 6   2  0.6181100E+00  0.8782337E+02  0.7957747E-01  0.1307799E+00
       21   -1    0    0  501  502  0.00000000000E+00  0.00000000000E+00  0.71423781697E+03  0.71423781697E+03  0.00000000000E+00 0. -1.
        1   -1    0    0  502    0  0.00000000000E+00  0.00000000000E+00 -0.26068749702E+02  0.26068749702E+02  0.00000000000E+00 0. -1.
      -24    2    1    2    0    0  0.30566056239E+02  0.16998154384E+02  0.49760779545E+02  0.10094097260E+03  0.80558821506E+02 0.  0.
       11    1    3    3    0    0  0.23304655396E+02  0.45967141401E+00 -0.18859488811E+02  0.29983305007E+02  0.00000000000E+00 0. -1.
      -12    1    3    3    0    0  0.72614008433E+01  0.16538482970E+02  0.68620268357E+02  0.70957667595E+02  0.00000000000E+00 0.  1.
        2    1    1    2  501    0 -0.30566056239E+02 -0.16998154384E+02  0.63840828773E+03  0.63936559407E+03  0.00000000000E+00 0. -1.
</event>
<event>
 5   1  0.6181100E+00  0.6585642E+02  0.7957747E-01  0.1370764E+00
        3   -1    0    0  501    0  0.00000000000E+00  0.00000000000E+00  0.27257468993E+02  0.27257468993E+02  0.00000000000E+00 0. -1.
       -4   -1    0    0    0  501  0.00000000000E+00  0.00000000000E+00 -0.39778715802E+02  0.39778715802E+02  0.00000000000E+00 0.  1.
      -24    2    1    2    0    0  0.00000000000E+00  0.00000000000E+00 -0.12521246809E+02  0.67036184796E+02  0.65856423000E+02 0.  0.
       11    1    3    3    0    0 -0.61887980488E+01 -0.22551750330E+02  0.17336208470E+02  0.29110595809E+02  0.00000000000E+00 0. -1.
      -12    1    3    3    0    0  0.61887980488E+01  0.22551750330E+02 -0.29857455279E+02  0.37925588987E+02  0.00000000000E+00 0.  1.
</event>
<event>
 6   2  0.6181100E+00  0.8250438E+02  0.7957747E-01  0.1320969E+00
       21   -1    0    0  501  502  0.00000000000E+00  0.00000000000E+00  0.16649171762E+03  0.16649171762E+03  0.00000000000E+00 0.  1.
       -2   -1    0    0    0  501  0.00000000000E+00  0.00000000000E+00 -0.25786825527E+02  0.25786825527E+02  0.00000000000E+00 0.  1.
      -24    2    1    2    0    0 -0.27173144254E+01  0.21962417198E+02  0.44859218810E+02  0.93911248512E+02  0.79481076477E+02 0.  0.
       11    1    3    3    0    0 -0.99649632503E+01 -0.11705804078E+02  0.55718470034E+02  0.57800296233E+02  0.00000000000E+00 0. -1.
      -12    1    3    3    0    0  0.72476488249E+01  0.33668221276E+02 -0.10859251224E+02  0.36110952279E+02  0.00000000000E+00 0.  1.
       -1    1    1    2    0  502  0.27173144254E+01 -0.21962417198E+02  0.95845673286E+02  0.98367294639E+02  0.00000000000E+00 0.  1.
</event>
<event>
 6   2  0.6181100E+00  0.1128838E+03  0.7957747E-01  0.1257428E+00
        1   -1    0    0  502    0  0.00000000000E+00  0.00000000000E+00  0.47251827101E+03  0.47251827101E+03  0.00000000000E+00 0. -1.
       21   -1    0    0  501  502  0.00000000000E+00  0.00000000000E+00 -0.37230121460E+02  0.37230121460E+02  0.00000000000E+00 0.  1.
      -24    2    1    2    0    0 -0.62503411466E+02 -0.49270909311E+02  0.63461889281E+02  0.12949970178E+03  0.80052872652E+02 0.  0.
       11    1    3    3    0    0 -0.26750978846E+02  0.16992913565E+02  0.10618509455E+01  0.31709643771E+02  0.00000000000E+00 0. -1.
      -12    1    3    3    0    0 -0.35752432619E+02 -0.66263822876E+02  0.62400038336E+02  0.97790058005E+02  0.00000000000E+00 0.  1.
        2    1    1    2  501    0  0.62503411466E+02  0.49270909311E+02  0.37182626027E+03  0.38024869069E+03  0.00000000000E+00 0. -1.
</event>
<event>
 5   1  0.6181100E+00  0.6190971E+02  0.7957747E-01  0.1385081E+00
       -2   -1    0    0    0  501  0.00000000000E+00  0.00000000000E+00  0.62868064423E+02  0.62868064423E+02  0.00000000000E+00 0.  1.
        1   -1    0    0  501    0  0.00000000000E+00  0.00000000000E+00 -0.15241492444E+02  0.15241492444E+02  0.00000000000E+00 0. -1.
      -24    2    1    2    0    0  0.00000000000E+00  0.00000000000E+00  0.47626571979E+02  0.78109556868E+02  0.61909712611E+02 0.  0.
       11    1    3    3    0    0  0.54707551902E+01 -0.19208666849E+02 -0.60246114381E+01  0.20861399460E+02  0.00000000000E+00 0. -1.
      -12    1    3    3    0    0 -0.54707551902E+01  0.19208666849E+02  0.53651183417E+02  0.57248157407E+02  0.00000000000E+00 0.  1.
</event>
<event>
 5   1  0.6181100E+00  0.7892313E+02  0.7957747E-01  0.1330486E+00
       -2   -1    0    0    0  501  0.00000000000E+00  0.00000000000E+00  0.30565935002E+03  0.30565935002E+03  0.00000000000E+00 0.  1.
        1   -1    0    0  501    0  0.00000000000E+00  0.00000000000E+00 -0.50946095775E+01  0.50946095775E+01  0.00000000000E+00 0. -1.
      -24    2    1    2    0    0  0.00000000000E+00  0.00000000000E+00  0.30056474044E+03  0.31075395960E+03  0.78923128475E+02 0.  0.
       11    1    3    3    0    0  0.23743896939E+02 -0.31408484900E+02  0.16066216427E+03  0.16541643386E+03  0.00000000000E+00 0. -1.
      -12    1    3    3    0    0 -0.23743896939E+02  0.31408484900E+02  0.13990257618E+03  0.14533752573E+03  0.00000000000E+00 0.  1.
</event>
<event>
 4   3  0.6181100E+00  0.1798861E+03  0.7957747E-01  0.1173529E+00
       21   -1    0    0  503  502  0.00000000000E+00  0.00000000000E+00  0.19421394801E+03  0.19421394801E+03  0.00000000000E+00 0.  1.
       21   -1    0    0  501  503  0.00000000000E+00  0.00000000000E+00 -0.35332549934E+03  0.35332549934E+03  0.00000000000E+00 0.  1.
        6    1    1    2  501    0 -0.34426988089E+02 -0.35281490888E+02 -0.27856904429E+03  0.33160173936E+03  0.17300000000E+03 0.  1.
       -6    1    1    2    0  502  0.34426988089E+02  0.35281490888E+02  0.11945749297E+03  0.21593770799E+03  0.17300000000E+03 0.  1.
</event>
<event>
 6   2  0.6181100E+00  0.8562555E+02  0.7957747E-01  0.1313110E+00
        1   -1    0    0  502    0  0.00000000000E+00  0.00000000000E+00  0.95960333643E+02  0.95960333643E+02  0.00000000000E+00 0. -1.
       21   -1    0    0  501  502  0.00000000000E+00  0.00000000000E+00 -0.35291778004E+02  0.35291778004E+02  0.00000000000E+00 0.  1.
      -24    2    1    2    0    0 -0.25652272022E+02  0.16312447787E+02  0.40117208889E+02  0.94557522591E+02  0.80047483513E+02 0.  0.
       11    1    3    3    0    0  0.20273498561E+02  0.17769410418E+01  0.41656281029E+02  0.46361816320E+02  0.00000000000E+00 0. -1.
      -12    1    3    3    0    0 -0.45925770582E+02  0.14535506746E+02 -0.15390721395E+01  0.48195706271E+02  0.00000000000E+00 0.  1.
        2    1    1    2  501    0  0.25652272022E+02 -0.16312447787E+02  0.20551346750E+02  0.36694589055E+02  0.00000000000E+00 0. -1.
</event>
<event>
 5   1  0.6181100E+00  0.7854582E+02  0.7957747E-01  0.1331522E+00
        1   -1    0    0  501    0  0.00000000000E+00  0.00000000000E+00  0.25824036688E+03  0.25824036688E+03  0.00000000000E+00 0. -1.
       -2   -1    0    0    0  501  0.00000000000E+00  0.00000000000E+00 -0.59725801977E+01  0.59725801977E+01  0.00000000000E+00 0.  1.
      -24    2    1    2    0    0  0.00000000000E+00  0.00000000000E+00  0.25226778668E+03  0.26421294707E+03  0.78545815966E+02 0.  0.
       11    1    3    3    0    0 -0.21038047782E+02 -0.29226030393E+02  0.17885033648E+03  0.18243958772E+03  0.00000000000E+00 0. -1.
      -12    1    3    3    0    0  0.21038047782E+02  0.29226030393E+02  0.73417450198E+02  0.81773359357E+02  0.00000000000E+00 0.  1.
</event>
<event>
 4   3  0.6181100E+00  0.2070517E+03  0.7957747E-01  0.1150362E+00
       21   -1    0    0  501  502  0.00000000000E+00  0.00000000000E+00  0.26727264714E+02  0.26727264714E+02  0.00000000000E+00 0.  1.
       21   -1    0    0  502  503  0.00000000000E+00  0.00000000000E+00 -0.17000421127E+04  0.17000421127E+04  0.00000000000E+00 0. -1.
        6    1    1    2  501    0 -0.13132041149E+02  0.11299988408E+03 -0.10418749824E+04  0.10622494544E+04  0.17300000000E+03 0. -1.
       -6    1    1    2    0  503  0.13132041149E+02 -0.11299988408E+03 -0.63143986558E+03  0.66451992307E+03  0.17300000000E+03 0.  1.
</event>
<event>
 5   1  0.6181100E+00  0.8261455E+02  0.7957747E-01  0.1320685E+00
       -4   -1    0    0    0  501  0.00000000000E+00  0.00000000000E+00  0.26888585375E+02  0.26888585375E+02  0.00000000000E+00 0.  1.
        3   -1    0    0  501    0  0.00000000000E+00  0.00000000000E+00 -0.63457815190E+02  0.63457815190E+02  0.00000000000E+00 0. -1.
      -24    2    1    2    0    0  0.00000000000E+00  0.00000000000E+00 -0.36569229815E+02  0.90346400565E+02  0.82614547906E+02 0.  0.
       11    1    3    3    0    0 -0.37916739464E+02  0.16238090045E+02 -0.20714299427E+02  0.46156656082E+02  0.00000000000E+00 0. -1.
      -12    1    3    3    0    0  0.37916739464E+02 -0.16238090045E+02 -0.15854930388E+02  0.44189744483E+02  0.00000000000E+00 0.  1.
</event>
<event>
 5   1  0.6181100E+00  0.7958789E+02  0.7957747E-01  0.1328676E+00
       -2   -1    0    0    0  501  0.00000000000E+00  0.00000000000E+00  0.45675222884E+02  0.45675222884E+02  0.00000000000E+00 0.  1.
        1   -1    0    0  501    0  0.00000000000E+00  0.00000000000E+00 -0.34669955802E+02  0.34669955802E+02  0.00000000000E+00 0. -1.
      -24    2    1    2    0    0  0.00000000000E+00  0.00000000000E+00  0.11005267082E+02  0.80345178687E+02  0.79587887487E+02 0.  0.
       11    1    3    3    0    0 -0.39422616343E+02 -0.47139328525E+01  0.27949271241E+01  0.39801701721E+02  0.00000000000E+00 0. -1.
      -12    1    3    3    0    0  0.39422616343E+02  0.47139328525E+01  0.82103399583E+01  0.40543476966E+02  0.00000000000E+00 0.  1.
</event>
<event>
 5   1  0.6181100E+00  0.7915074E+02  0.7957747E-01  0.1329864E+00
       -2   -1    0    0    0  501  0.00000000000E+00  0.00000000000E+00  0.22350718624E+03  0.22350718624E+03  0.00000000000E+00 0.  1.
        1   -1    0    0  501    0  0.00000000000E+00  0.00000000000E+00 -0.70074253368E+01  0.70074253368E+01  0.00000000000E+00 0. -1.
      -24    2    1    2    0    0  0.00000000000E+00  0.00000000000E+00  0.21649976090E+03  0.23051461157E+03  0.79150740231E+02 0.  0.
       11    1    3    3    0    0  0.10024311133E+02 -0.31026195112E+02  0.42926310182E+02  0.53905284552E+02  0.00000000000E+00 0. -1.
      -12    1    3    3    0    0 -0.10024311133E+02  0.31026195112E+02  0.17357345072E+03  0.17660932702E+03  0.00000000000E+00 0.  1.
</event>
<event>
 4   3  0.6181100E+00  0.2443354E+03  0.7957747E-01  0.1124234E+00
        2   -1    0    0  502    0  0.00000000000E+00  0.00000000000E+00  0.13067476559E+04  0.13067476559E+04  0.00000000000E+00 0.  1.
       -2   -1    0    0    0  501  0.00000000000E+00  0.00000000000E+00 -0.47587836686E+02  0.47587836686E+02  0.00000000000E+00 0. -1.
        6    1    1    2  502    0 -0.35815152081E+02  0.16878409987E+03  0.49419850958E+03  0.55130024883E+03  0.17300000000E+03 0. -1.
       -6    1    1    2    0  501  0.35815152081E+02 -0.16878409987E+03  0.76496130967E+03  0.80303524379E+03  0.17300000000E+03 0.  1.
</event>
<event>
 5   1  0.6181100E+00  0.8123744E+02  0.7957747E-01  0.1324272E+00
        3   -1    0    0  501    0  0.00000000000E+00  0.00000000000E+00  0.69549361162E+02  0.69549361162E+02  0.00000000000E+00 0. -1.
       -4   -1    0    0    0  501  0.00000000000E+00  0.00000000000E+00 -0.23722436557E+02  0.23722436557E+02  0.00000000000E+00 0.  1.
      -24    2    1    2    0    0  0.00000000000E+00  0.00000000000E+00  0.45826924605E+02  0.93271797719E+02  0.81237437373E+02 0.  0.
       11    1    3    3    0    0 -0.18220346017E+02  0.12201448108E+02  0.62169443684E+02  0.65923410659E+02  0.00000000000E+00 0. -1.
      -12    1    3    3    0    0  0.18220346017E+02 -0.12201448108E+02 -0.16342519080E+02  0.27348387060E+02  0.00000000000E+00 0.  1.
</event>
<event>
 5   1  0.6181100E+00  0.8122360E+02  0.7957747E-01  0.1324309E+00
        1   -1    0    0  501    0  0.00000000000E+00  0.00000000000E+00  0.44564452379E+01  0.44564452379E+01  0.00000000000E+00 0. -1.
       -2   -1    0    0    0  501  0.00000000000E+00  0.00000000000E+00 -0.37009729738E+03  0.37009729738E+03  0.00000000000E+00 0.  1.
      -24    2    1    2    0    0  0.00000000000E+00  0.00000000000E+00 -0.36564085214E+03  0.37455374262E+03  0.81223600966E+02 0.  0.
       11    1    3    3    0    0  0.16028291891E+02 -0.27307759739E+02 -0.65551536369E+02  0.72798515117E+02  0.00000000000E+00 0. -1.
      -12    1    3    3    0    0 -0.16028291891E+02  0.27307759739E+02 -0.30008931577E+03  0.30175522750E+03  0.00000000000E+00 0.  1.
</event>
<event>
 6   2  0.6181100E+00  0.9474886E+02  0.7957747E-01  0.1292148E+00
        3   -1    0    0  502    0  0.00000000000E+00  0.00000000000E+00  0.37331614102E+03  0.37331614102E+03  0.00000000000E+00 0. -1.
       21   -1    0    0  501  502  0.00000000000E+00  0.00000000000E+00 -0.22330134290E+02  0.22330134290E+02  0.00000000000E+00 0. -1.
      -24    2    1    2    0    0 -0.55797446438E+02 -0.22905444193E+02  0.30619110300E+03  0.32051573690E+03  0.73070730373E+02 0.  0.
       11    1    3    3    0    0 -0.12542961262E+02 -0.41742424794E+02  0.10158349492E+03  0.11053941534E+03  0.00000000000E+00 0. -1.
      -12    1    3    3    0    0 -0.43254485176E+02  0.18836980602E+02  0.20460760809E+03  0.20997632155E+03  0.00000000000E+00 0.  1.
        4    1    1    2  501    0  0.55797446438E+02  0.22905444193E+02  0.44794903729E+02  0.75130538416E+02  0.00000000000E+00 0. -1.
</event>
<event>
 6   2  0.6181100E+00  0.9126548E+02  0.7957747E-01  0.1299825E+00
       -2   -1    0    0    0  501  0.00000000000E+00  0.00000000000E+00  0.47208126616E+03  0.47208126616E+03  0.00000000000E+00 0.  1.
       21   -1    0    0  501  502  0.00000000000E+00  0.00000000000E+00 -0.82002276636E+01  0.82002276636E+01  0.00000000000E+00 0. -1.
      -24    2    1    2    0    0 -0.24567260725E+02  0.22238884686E+02  0.34523072279E+03  0.35709052131E+03  0.85036875295E+02 0.  0.
       11    1    3    3    0    0 -0.48098428019E+02 -0.12064240284E+02  0.19510421370E+03  0.20130737412E+03  0.00000000000E+00 0. -1.
      -12    1    3    3    0    0  0.23531167295E+02  0.34303124970E+02  0.15012650909E+03  0.15578314719E+03  0.00000000000E+00 0.  1.
       -1    1    1    2    0  502  0.24567260725E+02 -0.22238884686E+02  0.11865031571E+03  0.12319097251E+03  0.00000000000E+00 0.  1.
</event>
<event>
 5   1  0.6181100E+00  0.7986084E+02  0.7957747E-01  0.1327939E+00
       -2   -1    0    0    0  501  0.00000000000E+00  0.00000000000E+00  0.13613442520E+02  0.13613442520E+02  0.00000000000E+00 0.  1.
        1   -1    0    0  501    0  0.00000000000E+00  0.00000000000E+00 -0.11712235282E+03  0.11712235282E+03  0.00000000000E+00 0. -1.
      -24    2    1    2    0    0  0.00000000000E+00  0.00000000000E+00 -0.10350891030E+03  0.13073579534E+03  0.79860839414E+02 0.  0.
       11    1    3    3    0    0 -0.15349562891E+02  0.16773953396E+02 -0.10549004141E+03  0.10791257309E+03  0.00000000000E+00 0. -1.
      -12    1    3    3    0    0  0.15349562891E+02 -0.16773953396E+02  0.19811311123E+01  0.22823222252E+02  0.00000000000E+00 0.  1.
</event>
<event>
 6   2  0.6181100E+00  0.9464278E+02  0.7957747E-01  0.1292377E+00
        3   -1    0    0  502    0  0.00000000000E+00  0.00000000000E+00  0.12807767128E+02  0.12807767128E+02  0.00000000000E+00 0. -1.
       21   -1    0    0  501  502  0.00000000000E+00  0.00000000000E+00 -0.49105692898E+03  0.49105692898E+03  0.00000000000E+00 0. -1.
      -24    2    1    2    0    0 -0.46392095932E+02  0.10377716109E+02 -0.19616218999E+03  0.21780004738E+03  0.81837230535E+02 0.  0.
       11    1    3    3    0    0 -0.35344321275E+02 -0.31163877128E+02 -0.13543940376E+03  0.14340237228E+03  0.00000000000E+00 0. -1.
      -12    1    3    3    0    0 -0.11047774657E+02  0.41541593237E+02 -0.60722786231E+02  0.74397675106E+02  0.00000000000E+00 0.  1.
        4    1    1    2  501    0  0.46392095932E+02 -0.10377716109E+02 -0.28208697186E+03  0.28606464872E+03  0.00000000000E+00 0. -1.
</event>
<event>
 6   2  0.6181100E+00  0.8770878E+02  0.7957747E-01  0.1308072E+00
        3   -1    0    0  502    0  0.00000000000E+00  0.00000000000E+00  0.88904656243E+02  0.88904656243E+02  0.00000000000E+00 0. -1.
       21   -1    0    0  501  502  0.00000000000E+00  0.00000000000E+00 -0.46687506530E+02  0.46687506530E+02  0.00000000000E+00 0.  1.
      -24    2    1    2    0    0 -0.39619711699E+02  0.20570705915E+01  0.19410778065E+02  0.89831003671E+02  0.78223256266E+02 0.  0.
       11    1    3    3    0    0 -0.16600713481E+02 -0.37111640196E+02  0.60271250144E+00  0.40659817861E+02  0.00000000000E+00 0. -1.
      -12    1    3    3    0    0 -0.23018998219E+02  0.39168710788E+02  0.18808065564E+02  0.49171185810E+02  0.00000000000E+00 0.  1.
        4    1    1    2  501    0  0.39619711699E+02 -0.20570705915E+01  0.22806371648E+02  0.45761159101E+02  0.00000000000E+00 0. -1.
</event>
<event>
 6   2  0.6181100E+00  0.8547896E+02  0.7957747E-01  0.1313470E+00
       21   -1    0    0  501  502  0.00000000000E+00  0.00000000000E+00  0.14489597073E+02  0.14489597073E+02  0.00000000000E+00 0. -1.
        1   -1    0    0  502    0  0.00000000000E+00  0.00000000000E+00 -0.31880607756E+03  0.31880607756E+03  0.00000000000E+00 0. -1.
      -24    2    1    2    0    0  0.22400940059E+02 -0.16039044066E+02 -0.28982202867E+03  0.30216462609E+03  0.80917241096E+02 0.  0.
       11    1    3    3    0    0  0.22319397980E+02  0.28024483144E+02 -0.78375720533E+02  0.86175871047E+02  0.00000000000E+00 0. -1.
      -12    1    3    3    0    0  0.81542078160E-01 -0.44063527210E+02 -0.21144630814E+03  0.21598875505E+03  0.00000000000E+00 0.  1.
        2    1    1    2  501    0 -0.22400940059E+02  0.16039044066E+02 -0.14494451816E+02  0.31131048545E+02  0.00000000000E+00 0. -1.
</event>
<event>
 6   2  0.6181100E+00  0.1101783E+03  0.7957747E-01  0.1262126E+00
       21   -1    0    0  501  502  0.00000000000E+00  0.00000000000E+00  0.10256830764E+04  0.10256830764E+04  0.00000000000E+00 0. -1.
       -2   -1    0    0    0  501  0.00000000000E+00  0.00000000000E+00 -0.10188052072E+02  0.10188052072E+02  0.00000000000E+00 0.  1.
      -24    2    1    2    0    0  0.74481143541E+02  0.85378576696E+01  0.80332994463E+03  0.81085033654E+03  0.80739906960E+02 0.  0.
       11    1    3    3    0    0  0.86547732077E+02  0.22241748351E+01  0.51717166556E+03  0.52436818032E+03  0.00000000000E+00 0. -1.
      -12    1    3    3    0    0 -0.12066588536E+02  0.63136828345E+01  0.28615827907E+03  0.28648215622E+03  0.00000000000E+00 0.  1.
       -1    1    1    2    0  502 -0.74481143541E+02 -0.85378576696E+01  0.21216507968E+03  0.22502079191E+03  0.00000000000E+00 0.  1.
</event>
<event>
 5   1  0.6181100E+00  0.7920147E+02  0.7957747E-01  0.1329726E+00
        1   -1    0    0  501    0  0.00000000000E+00  0.00000000000E+00  0.56384039782E+01  0.56384039782E+01  0.00000000000E+00 0. -1.
       -2   -1    0    0    0  501  0.00000000000E+00  0.00000000000E+00 -0.27813159173E+03  0.27813159173E+03  0.00000000000E+00 0.  1.
      -24    2    1    2    0    0  0.00000000000E+00  0.00000000000E+00 -0.27249318775E+03  0.28376999571E+03  0.79201471533E+02 0.  0.
       11    1    3    3    0    0  0.21252045535E+02  0.56927825736E+01 -0.18274272482E+02  0.28600808514E+02  0.00000000000E+00 0. -1.
      -12    1    3    3    0    0 -0.21252045535E+02 -0.56927825736E+01 -0.25421891527E+03  0.25516918719E+03  0.00000000000E+00 0.  1.
</event>
<event>
 5   1  0.6181100E+00  0.8045797E+02  0.7957747E-01  0.1326338E+00
        1   -1    0    0  501    0  0.00000000000E+00  0.00000000000E+00  0.19887059036E+02  0.19887059036E+02  0.00000000000E+00 0. -1.
       -2   -1    0    0    0  501  0.00000000000E+00  0.00000000000E+00 -0.81378107372E+02  0.81378107372E+02  0.00000000000E+00 0.  1.
      -24    2    1    2    0    0  0.00000000000E+00  0.00000000000E+00 -0.61491048336E+02  0.10126516641E+03  0.80457969786E+02 0.  0.
       11    1    3    3    0    0 -0.19309566921E+02 -0.18517254590E+02  0.70677462838E+01  0.27671305169E+02  0.00000000000E+00 0. -1.
      -12    1    3    3    0    0  0.19309566921E+02  0.18517254590E+02 -0.68558794620E+02  0.73593861238E+02  0.00000000000E+00 0.  1.
</event>
<event>
 5   1  0.6181100E+00  0.8240843E+02  0.7957747E-01  0.1321217E+00
       -2   -1    0    0    0  501  0.00000000000E+00  0.00000000000E+00  0.47891706206E+02  0.47891706206E+02  0.00000000000E+00 0.  1.
        1   -1    0    0  501    0  0.00000000000E+00  0.00000000000E+00 -0.35450551526E+02  0.35450551526E+02  0.00000000000E+00 0. -1.
      -24    2    1    2    0    0  0.00000000000E+00  0.00000000000E+00  0.12441154681E+02  0.83342257732E+02  0.82408431571E+02 0.  0.
       11    1    3    3    0    0  0.72982356455E+01  0.29966250073E+02 -0.21412050845E+02  0.37546188999E+02  0.00000000000E+00 0. -1.
      -12    1    3    3    0    0 -0.72982356455E+01 -0.29966250073E+02  0.33853205526E+02  0.45796068732E+02  0.00000000000E+00 0.  1.
</event>
<event>
 6   2  0.6181100E+00  0.9640809E+02  0.7957747E-01  0.1288621E+00
       21   -1    0    0  501  502  0.00000000000E+00  0.00000000000E+00  0.16925982183E+02  0.16925982183E+02  0.00000000000E+00 0. -1.
       -2   -1    0    0    0  501  0.00000000000E+00  0.00000000000E+00 -0.30850597344E+03  0.30850597344E+03  0.00000000000E+00 0.  1.
      -24    2    1    2    0    0 -0.39245715911E+02  0.16878074396E+02 -0.23881529779E+03  0.25754080385E+03  0.86425827016E+02 0.  0.
       11    1    3    3    0    0 -0.38299324328E+02 -0.28843138948E+02 -0.91644655413E+02  0.10342875700E+03  0.00000000000E+00 0. -1.
      -12    1    3    3    0    0 -0.94639158333E+00  0.45721213344E+02 -0.14717064238E+03  0.15411204685E+03  0.00000000000E+00 0.  1.
       -1    1    1    2    0  502  0.39245715911E+02 -0.16878074396E+02 -0.52764693464E+02  0.67891151773E+02  0.00000000000E+00 0.  1.
</event>
<event>
 5   1  0.6181100E+00  0.7954674E+02  0.7957747E-01  0.1328788E+00
        1   -1    0    0  501    0  0.00000000000E+00  0.00000000000E+00  0.52474190845E+02  0.52474190845E+02  0.00000000000E+00 0. -1.
       -2   -1    0    0    0  501  0.00000000000E+00  0.00000000000E+00 -0.30146651351E+02  0.30146651351E+02  0.00000000000E+00 0.  1.
      -24    2    1    2    0    0  0.00000000000E+00  0.00000000000E+00  0.22327539494E+02  0.82620842196E+02  0.79546744404E+02 0.  0.
       11    1    3    3    0    0 -0.47394619145E+01  0.32032895130E+02  0.35150678339E+02  0.47792667401E+02  0.00000000000E+00 0. -1.
      -12    1    3    3    0    0  0.47394619145E+01 -0.32032895130E+02 -0.12823138845E+02  0.34828174794E+02  0.00000000000E+00 0.  1.
</event>
<event>
 5   1  0.6181100E+00  0.8088307E+02  0.7957747E-01  0.1325208E+00
        1   -1    0    0  501    0  0.00000000000E+00  0.00000000000E+00  0.93936472328E+01  0.93936472328E+01  0.00000000000E+00 0. -1.
       -2   -1    0    0    0  501  0.00000000000E+00  0.00000000000E+00 -0.17410891009E+03  0.17410891009E+03  0.00000000000E+00 0.  1.
      -24    2    1    2    0    0  0.00000000000E+00  0.00000000000E+00 -0.16471526286E+03  0.18350255733E+03  0.80883068228E+02 0.  0.
       11    1    3    3    0    0  0.48491870237E+01  0.38168621676E+02 -0.54097542132E+02  0.66384503916E+02  0.00000000000E+00 0. -1.
      -12    1    3    3    0    0 -0.48491870237E+01 -0.38168621676E+02 -0.11061772073E+03  0.11711805341E+03  0.00000000000E+00 0.  1.
</event>
<event>
 4   3  0.6181100E+00  0.2088600E+03  0.7957747E-01  0.1148959E+00
        2   -1    0    0  502    0  0.00000000000E+00  0.00000000000E+00  0.49027636311E+02  0.49027636311E+02  0.00000000000E+00 0.  1.
       -2   -1    0    0    0  501  0.00000000000E+00  0.00000000000E+00 -0.98092504022E+03  0.98092504022E+03  0.00000000000E+00 0. -1.
        6    1    1    2  502    0 -0.47088749266E+02  0.10712675690E+03 -0.62294879739E+03  0.65702944874E+03  0.17300000000E+03 0. -1.
       -6    1    1    2    0  501  0.47088749266E+02 -0.10712675690E+03 -0.30894860652E+03  0.37292322779E+03  0.17300000000E+03 0.  1.
</event>
<event>
 5   1  0.6181100E+00  0.8127649E+02  0.7957747E-01  0.1324169E+00
       -2   -1    0    0    0  501  0.00000000000E+00  0.00000000000E+00  0.45613751249E+02  0.45613751249E+02  0.00000000000E+00 0.  1.
        1   -1    0    0  501    0  0.00000000000E+00  0.00000000000E+00 -0.36205465792E+02  0.36205465792E+02  0.00000000000E+00 0. -1.
      -24    2    1    2    0    0  0.00000000000E+00  0.00000000000E+00  0.94082854577E+01  0.81819217041E+02  0.81276493785E+02 0.  0.
       11    1    3    3    0    0  0.52254817157E+01 -0.38701426975E+02 -0.66119601896E+01  0.39608384549E+02  0.00000000000E+00 0. -1.
      -12    1    3    3    0    0 -0.52254817157E+01  0.38701426975E+02  0.16020245647E+02  0.42210832492E+02  0.00000000000E+00 0.  1.
</event>
<event>
 5   1  0.6181100E+00  0.8215929E+02  0.7957747E-01  0.1321862E+00
        1   -1    0    0  501    0  0.00000000000E+00  0.00000000000E+00  0.11017090356E+03  0.11017090356E+03  0.00000000000E+00 0. -1.
       -2   -1    0    0    0  501  0.00000000000E+00  0.00000000000E+00 -0.15317451028E+02  0.15317451028E+02  0.00000000000E+00 0.  1.
      -24    2    1    2    0    0  0.00000000000E+00  0.00000000000E+00  0.94853452536E+02  0.12548835459E+03  0.82159294546E+02 0.  0.
       11    1    3    3    0    0  0.28040369006E+02  0.14240770695E+02  0.87793341546E+02  0.93256274126E+02  0.00000000000E+00 0. -1.
      -12    1    3    3    0    0 -0.28040369006E+02 -0.14240770695E+02  0.70601109900E+01  0.32232080466E+02  0.00000000000E+00 0.  1.
</event>
<event>
 5   1  0.6181100E+00  0.7645925E+02  0.7957747E-01  0.1337372E+00
        3   -1    0    0  501    0  0.00000000000E+00  0.00000000000E+00  0.17104418954E+02  0.17104418954E+02  0.00000000000E+00 0. -1.
       -4   -1    0    0    0  501  0.00000000000E+00  0.00000000000E+00 -0.85445997090E+02  0.85445997090E+02  0.00000000000E+00 0.  1.
      -24    2    1    2    0    0  0.00000000000E+00  0.00000000000E+00 -0.68341578136E+02  0.10255041604E+03  0.76459247503E+02 0.  0.
       11    1    3    3    0    0  0.20562532106E+02  0.55401142490E+01  0.84122135797E+01  0.22897072516E+02  0.00000000000E+00 0. -1.
      -12    1    3    3    0    0 -0.20562532106E+02 -0.55401142490E+01 -0.76753791716E+02  0.79653343529E+02  0.00000000000E+00 0.  1.
</event>
<event>
 6   2  0.6181100E+00  0.8403834E+02  0.7957747E-01  0.1317058E+00
       -2   -1    0    0    0  501  0.00000000000E+00  0.00000000000E+00  0.23940452304E+03  0.23940452304E+03  0.00000000000E+00 0.  1.
        1   -1    0    0  502    0  0.00000000000E+00  0.00000000000E+00 -0.17133633280E+02  0.17133633280E+02  0.00000000000E+00 0. -1.
      -24    2    1    2    0    0 -0.19602756641E+02  0.17957447186E+02  0.96389946388E+02  0.12788066574E+03  0.79722675124E+02 0.  0.
       11    1    3    3    0    0 -0.40458033838E+01  0.15967689993E+02 -0.10703847598E+02  0.19644541280E+02  0.00000000000E+00 0. -1.
      -12    1    3    3    0    0 -0.15556953257E+02  0.19897571935E+01  0.10709379399E+03  0.10823612446E+03  0.00000000000E+00 0.  1.
       21    1    1    2  502  501  0.19602756641E+02 -0.17957447186E+02  0.12588094337E+03  0.12865749058E+03  0.00000000000E+00 0.  1.
</event>
<event>
 5   1  0.6181100E+00  0.8002661E+02  0.7957747E-01  0.1327493E+00
       -2   -1    0    0    0  501  0.00000000000E+00  0.00000000000E+00  0.86252043436E+02  0.86252043436E+02  0.00000000000E+00 0.  1.
        1   -1    0    0  501    0  0.00000000000E+00  0.00000000000E+00 -0.18562628554E+02  0.18562628554E+02  0.00000000000E+00 0. -1.
      -24    2    1    2    0    0  0.00000000000E+00  0.00000000000E+00  0.67689414882E+02  0.10481467199E+03  0.80026611682E+02 0.  0.
       11    1    3    3    0    0 -0.16568950303E+02 -0.34287080260E+01 -0.13646580290E+02  0.21737417199E+02  0.00000000000E+00 0. -1.
      -12    1    3    3    0    0  0.16568950303E+02  0.34287080260E+01  0.81335995172E+02  0.83077254790E+02  0.00000000000E+00 0.  1.
</event>
<event>
 5   1  0.6181100E+00  0.8075156E+02  0.7957747E-01  0.1325557E+00
        1   -1    0    0  501    0  0.00000000000E+00  0.00000000000E+00  0.53634352031E+03  0.53634352031E+03  0.00000000000E+00 0. -1.
       -2   -1    0    0    0  501  0.00000000000E+00  0.00000000000E+00 -0.30394768788E+01  0.30394768788E+01  0.00000000000E+00 0.  1.
      -24    2    1    2    0    0  0.00000000000E+00  0.00000000000E+00  0.53330404343E+03  0.53938299718E+03  0.80751562934E+02 0.  0.
       11    1    3    3    0    0  0.33543555668E+02  0.17904197182E+02  0.17592991978E+03  0.17999185281E+03  0.00000000000E+00 0. -1.
      -12    1    3    3    0    0 -0.33543555668E+02 -0.17904197182E+02  0.35737412364E+03  0.35939114437E+03  0.00000000000E+00 0.  1.
</event>
<event>
 5   1  0.6181100E+00  0.7199231E+02  0.7957747E-01  0.1350640E+00
       -4   -1    0    0    0  501  0.00000000000E+00  0.00000000000E+00  0.57511592188E+01  0.57511592188E+01  0.00000000000E+00 0.  1.
        3   -1    0    0  501    0  0.00000000000E+00  0.00000000000E+00 -0.22529775944E+03  0.22529775944E+03  0.00000000000E+00 0. -1.
      -24    2    1    2    0    0  0.00000000000E+00  0.00000000000E+00 -0.21954660022E+03  0.23104891865E+03  0.71992313094E+02 0.  0.
       11    1    3    3    0    0  0.26432776242E+02  0.15787541703E+02 -0.16962456482E+03  0.17239614591E+03  0.00000000000E+00 0. -1.
      -12    1    3    3    0    0 -0.26432776242E+02 -0.15787541703E+02 -0.49922035393E+02  0.58652772745E+02  0.00000000000E+00 0.  1.
</event>
<event>
 6   2  0.6181100E+00  0.1146891E+03  0.7957747E-01  0.1254375E+00
       21   -1    0    0  501  502  0.00000000000E+00  0.00000000000E+00  0.82219135612E+02  0.82219135612E+02  0.00000000000E+00 0. -1.
       -2   -1    0    0    0  501  0.00000000000E+00  0.00000000000E+00 -0.12157784252E+03  0.12157784252E+03  0.00000000000E+00 0.  1.
      -24    2    1    2    0    0 -0.42531251464E+02  0.69208232973E+02 -0.28158983691E+01  0.11472361669E+03  0.80962288020E+02 0.  0.
       11    1    3    3    0    0 -0.52644581090E+02  0.80175558177E+02  0.80735505495E+01  0.96253593521E+02  0.00000000000E+00 0. -1.
      -12    1    3    3    0    0  0.10113329627E+02 -0.10967325204E+02 -0.10889448919E+02  0.18470023173E+02  0.00000000000E+00 0.  1.
       -1    1    1    2    0  502  0.42531251464E+02 -0.69208232973E+02 -0.36542808543E+02  0.89073361442E+02  0.00000000000E+00 0.  1.
</event>
<event>
 6   2  0.6181100E+00  0.1057681E+03  0.7957747E-01  0.1270117E+00
        3   -1    0    0  502    0  0.00000000000E+00  0.00000000000E+00  0.46055314873E+03  0.46055314873E+03  0.00000000000E+00 0. -1.
       21   -1    0    0  501  502  0.00000000000E+00  0.00000000000E+00 -0.16807061724E+02  0.16807061724E+02  0.00000000000E+00 0. -1.
      -24    2    1    2    0    0 -0.65240856925E+02  0.25149150836E+02  0.25400932763E+03  0.27515020314E+03  0.79360232891E+02 0.  0.
       11    1    3    3    0    0 -0.82465770511E+02  0.27410169459E+02  0.19195363859E+03  0.21070861412E+03  0.00000000000E+00 0. -1.
      -12    1    3    3    0    0  0.17224913586E+02 -0.22610186230E+01  0.62055689043E+02  0.64441589024E+02  0.00000000000E+00 0.  1.
        4    1    1    2  501    0  0.65240856925E+02 -0.25149150836E+02  0.18973675938E+03  0.20221000732E+03  0.00000000000E+00 0. -1.
</event>
<event>
 5   1  0.6181100E+00  0.8439798E+02  0.7957747E-01  0.1316155E+00
       -4   -1    0    0    0  501  0.00000000000E+00  0.00000000000E+00  0.11539193490E+03  0.11539193490E+03  0.00000000000E+00 0.  1.
        3   -1    0    0  501    0  0.00000000000E+00  0.00000000000E+00 -0.15432227231E+02  0.15432227231E+02  0.00000000000E+00 0. -1.
      -24    2    1    2    0    0  0.00000000000E+00  0.00000000000E+00  0.99959707672E+02  0.13082416213E+03  0.84397975332E+02 0.  0.
       11    1    3    3    0    0 -0.97984987844E+01 -0.13375739667E+02 -0.10171363519E+02  0.19451931161E+02  0.00000000000E+00 0. -1.
      -12    1    3    3    0    0  0.97984987844E+01  0.13375739667E+02  0.11013107119E+03  0.11137223097E+03  0.00000000000E+00 0.  1.
</event>
<event>
 5   1  0.6181100E+00  0.8166449E+02  0.7957747E-01  0.1323151E+00
        1   -1    0    0  501    0  0.00000000000E+00  0.00000000000E+00  0.48282109156E+01  0.48282109156E+01  0.00000000000E+00 0. -1.
       -2   -1    0    0    0  501  0.00000000000E+00  0.00000000000E+00 -0.34531883753E+03  0.34531883753E+03  0.00000000000E+00 0.  1.
      -24    2    1    2    0    0  0.00000000000E+00  0.00000000000E+00 -0.34049062662E+03  0.35014704845E+03  0.81664488751E+02 0.  0.
       11    1    3    3    0    0 -0.13764179361E+02 -0.28307992372E+02 -0.58727620204E+02  0.66631287249E+02  0.00000000000E+00 0. -1.
      -12    1    3    3    0    0  0.13764179361E+02  0.28307992372E+02 -0.28176300641E+03  0.28351576120E+03  0.00000000000E+00 0.  1.
</event>
<event>
 5   1  0.6181100E+00  0.7978549E+02  0.7957747E-01  0.1328142E+00
       -2   -1    0    0    0  501  0.00000000000E+00  0.00000000000E+00  0.60071820378E+02  0.60071820378E+02  0.00000000000E+00 0.  1.
        1   -1    0    0  501    0  0.00000000000E+00  0.00000000000E+00 -0.26492140420E+02  0.26492140420E+02  0.00000000000E+00 0. -1.
      -24    2    1    2    0    0  0.00000000000E+00  0.00000000000E+00  0.33579679958E+02  0.86563960798E+02  0.79785489928E+02 0.  0.
       11    1    3    3    0    0 -0.36598689890E+02 -0.27856920762E+01 -0.16494105923E+00  0.36704923206E+02  0.00000000000E+00 0. -1.
      -12    1    3    3    0    0  0.36598689890E+02  0.27856920762E+01  0.33744621017E+02  0.49859037592E+02  0.00000000000E+00 0.  1.
</event>
<event>
 5   1  0.6181100E+00  0.8163865E+02  0.7957747E-01  0.1323219E+00
       -2   -1    0    0    0  501  0.00000000000E+00  0.00000000000E+00  0.40033818061E+02  0.40033818061E+02  0.00000000000E+00 0.  1.
        1   -1    0    0  501    0  0.00000000000E+00  0.00000000000E+00 -0.41620243842E+02  0.41620243842E+02  0.00000000000E+00 0. -1.
      -24    2    1    2    0    0  0.00000000000E+00  0.00000000000E+00 -0.15864257815E+01  0.81654061903E+02  0.81638649417E+02 0.  0.
       11    1    3    3    0    0  0.32536439910E+02  0.19629660692E+02  0.14118450410E+02  0.40537317904E+02  0.00000000000E+00 0. -1.
      -12    1    3    3    0    0 -0.32536439910E+02 -0.19629660692E+02 -0.15704876192E+02  0.41116743999E+02  0.00000000000E+00 0.  1.
</event>
<event>
 6   2  0.6181100E+00  0.8426610E+02  0.7957747E-01  0.1316486E+00
        3   -1    0    0  502    0  0.00000000000E+00  0.00000000000E+00  0.98835589333E+02  0.98835589333E+02  0.00000000000E+00 0. -1.
       21   -1    0    0  501  502  0.00000000000E+00  0.00000000000E+00 -0.44130202683E+02  0.44130202683E+02  0.00000000000E+00 0.  1.
      -24    2    1    2    0    0  0.24094357450E+02 -0.25521487633E+01  0.12496654133E+01  0.84275369824E+02  0.80707650016E+02 0.  0.
       11    1    3    3    0    0  0.10889829637E+02  0.39030438697E+02  0.28121416687E+01  0.40618612423E+02  0.00000000000E+00 0. -1.
      -12    1    3    3    0    0  0.13204527813E+02 -0.41582587461E+02 -0.15624762554E+01  0.43656757400E+02  0.00000000000E+00 0.  1.
        4    1    1    2  501    0 -0.24094357450E+02  0.25521487633E+01  0.53455721237E+02  0.58690422193E+02  0.00000000000E+00 0. -1.
</event>
<event>
 4   3  0.6181100E+00  0.1762734E+03  0.7957747E-01  0.1176948E+00
       -3   -1    0    0    0  501  0.00000000000E+00  0.00000000000E+00  0.48031419743E+03  0.48031419743E+03  0.00000000000E+00 0.  1.
        3   -1    0    0  502    0  0.00000000000E+00  0.00000000000E+00 -0.65394890935E+02  0.65394890935E+02  0.00000000000E+00 0. -1.
        6    1    1    2  502    0 -0.11811250812E+02  0.31682902507E+02  0.23575501204E+03  0.29436837068E+03  0.17300000000E+03 0. -1.
       -6    1    1    2    0  501  0.11811250812E+02 -0.31682902507E+02  0.17916429446E+03  0.25134071768E+03  0.17300000000E+03 0. -1.
</event>
<event>
 6   2  0.6181100E+00  0.1160296E+03  0.7957747E-01  0.1252148E+00
       -2   -1    0    0    0  501  0.00000000000E+00  0.00000000000E+00  0.21706489600E+03  0.21706489600E+03  0.00000000000E+00 0.  1.
       21   -1    0    0  501  502  0.00000000000E+00  0.00000000000E+00 -0.84827630404E+02  0.84827630404E+02  0.00000000000E+00 0.  1.
      -24    2    1    2    0    0 -0.24248631676E+02 -0.79581580060E+02  0.17373912947E+03  0.20892140869E+03  0.80880441886E+02 0.  0.
       11    1    3    3    0    0 -0.23264655514E+02  0.10209048045E+02  0.28645648044E+02  0.38288928034E+02  0.00000000000E+00 0. -1.
      -12    1    3    3    0    0 -0.98397616210E+00 -0.89790628105E+02  0.14509348142E+03  0.17063248066E+03  0.00000000000E+00 0.  1.
       -1    1    1    2    0  502  0.24248631676E+02  0.79581580060E+02 -0.41501863872E+02  0.92971117708E+02  0.00000000000E+00 0.  1.
</event>
<event>
 5   1  0.6181100E+00  0.7992757E+02  0.7957747E-01  0.1327760E+00
        1   -1    0    0  501    0  0.00000000000E+00  0.00000000000E+00  0.18894916123E+02  0.18894916123E+02  0.00000000000E+00 0. -1.
       -2   -1    0    0    0  501  0.00000000000E+00  0.00000000000E+00 -0.84525606839E+02  0.84525606839E+02  0.00000000000E+00 0.  1.
      -24    2    1    2    0    0  0.00000000000E+00  0.00000000000E+00 -0.65630690716E+02  0.10342052296E+03  0.79927573502E+02 0.  0.
       11    1    3    3    0    0  0.16846378336E+02 -0.31630754043E+02 -0.99307673272E+01  0.37187702323E+02  0.00000000000E+00 0. -1.
      -12    1    3    3    0    0 -0.16846378336E+02  0.31630754043E+02 -0.55699923388E+02  0.66232820639E+02  0.00000000000E+00 0.  1.
</event>
<event>
 5   1  0.6181100E+00  0.7518233E+02  0.7957747E-01  0.1341057E+00
        1   -1    0    0  501    0  0.00000000000E+00  0.00000000000E+00  0.71532797226E+02  0.71532797226E+02  0.00000000000E+00 0. -1.
       -2   -1    0    0    0  501  0.00000000000E+00  0.00000000000E+00 -0.19754516488E+02  0.19754516488E+02  0.00000000000E+00 0.  1.
      -24    2    1    2    0    0  0.00000000000E+00  0.00000000000E+00  0.51778280738E+02  0.91287313715E+02  0.75182333623E+02 0.  0.
       11    1    3    3    0    0  0.17400351948E+02 -0.28706106782E+02  0.46433490652E+02  0.57296438534E+02  0.00000000000E+00 0. -1.
      -12    1    3    3    0    0 -0.17400351948E+02  0.28706106782E+02  0.53447900857E+01  0.33990875181E+02  0.00000000000E+00 0.  1.
</event>
<event>
 5   1  0.6181100E+00  0.8216556E+02  0.7957747E-01  0.1321846E+00
       -2   -1    0    0    0  501  0.00000000000E+00  0.00000000000E+00  0.23407187460E+03  0.23407187460E+03  0.00000000000E+00 0.  1.
        1   -1    0    0  501    0  0.00000000000E+00  0.00000000000E+00 -0.72105841980E+01  0.72105841980E+01  0.00000000000E+00 0. -1.
      -24    2    1    2    0    0  0.00000000000E+00  0.00000000000E+00  0.22686129040E+03  0.24128245879E+03  0.82165563593E+02 0.  0.
       11    1    3    3    0    0  0.17056364300E+01  0.19269250708E+02  0.70005469630E+01  0.20572332786E+02  0.00000000000E+00 0. -1.
      -12    1    3    3    0    0 -0.17056364300E+01 -0.19269250708E+02  0.21986074343E+03  0.22071012601E+03  0.00000000000E+00 0.  1.
</event>
<event>
 5   1  0.6181100E+00  0.7981401E+02  0.7957747E-01  0.1328066E+00
       -4   -1    0    0    0  501  0.00000000000E+00  0.00000000000E+00  0.27446257972E+02  0.27446257972E+02  0.00000000000E+00 0.  1.
        3   -1    0    0  501    0  0.00000000000E+00  0.00000000000E+00 -0.58025000684E+02  0.58025000684E+02  0.00000000000E+00 0. -1.
      -24    2    1    2    0    0  0.00000000000E+00  0.00000000000E+00 -0.30578742712E+02  0.85471258656E+02  0.79814012243E+02 0.  0.
       11    1    3    3    0    0  0.58944701591E+01  0.20566724066E+02 -0.51364440136E+02  0.55642076055E+02  0.00000000000E+00 0. -1.
      -12    1    3    3    0    0 -0.58944701591E+01 -0.20566724066E+02  0.20785697423E+02  0.29829182601E+02  0.00000000000E+00 0.  1.
</event>
<event>
 5   1  0.6181100E+00  0.8157805E+02  0.7957747E-01  0.1323377E+00
        3   -1    0    0  501    0  0.00000000000E+00  0.00000000000E+00  0.23924982979E+02  0.23924982979E+02  0.00000000000E+00 0. -1.
       -4   -1    0    0    0  501  0.00000000000E+00  0.00000000000E+00 -0.69540054934E+02  0.69540054934E+02  0.00000000000E+00 0.  1.
      -24    2    1    2    0    0  0.00000000000E+00  0.00000000000E+00 -0.45615071955E+02  0.93465037913E+02  0.81578051721E+02 0.  0.
       11    1    3    3    0    0 -0.68418561096E+00  0.40775857533E+02 -0.21915671304E+02  0.46297249553E+02  0.00000000000E+00 0. -1.
      -12    1    3    3    0    0  0.68418561096E+00 -0.40775857533E+02 -0.23699400651E+02  0.47167788359E+02  0.00000000000E+00 0.  1.
</event>
<event>
 5   1  0.6181100E+00  0.8092314E+02  0.7957747E-01  0.1325102E+00
        1   -1    0    0  501    0  0.00000000000E+00  0.00000000000E+00  0.11844690248E+03  0.11844690248E+03  0.00000000000E+00 0. -1.
       -2   -1    0    0    0  501  0.00000000000E+00  0.00000000000E+00 -0.13821707990E+02  0.13821707990E+02  0.00000000000E+00 0.  1.
      -24    2    1    2    0    0  0.00000000000E+00  0.00000000000E+00  0.10462519449E+03  0.13226861047E+03  0.80923136330E+02 0.  0.
       11    1    3    3    0    0  0.28020125194E+02 -0.26823189627E+02  0.71129026841E+02  0.81018203985E+02  0.00000000000E+00 0. -1.
      -12    1    3    3    0    0 -0.28020125194E+02  0.26823189627E+02  0.33496167646E+02  0.51250406483E+02  0.00000000000E+00 0.  1.
</event>
<event>
 5   1  0.6181100E+00  0.8171968E+02  0.7957747E-01  0.1323007E+00
        1   -1    0    0  501    0  0.00000000000E+00  0.00000000000E+00  0.26251831683E+02  0.26251831683E+02  0.00000000000E+00 0. -1.
       -2   -1    0    0    0  501  0.00000000000E+00  0.00000000000E+00 -0.63596574505E+02  0.63596574505E+02  0.00000000000E+00 0.  1.
      -24    2    1    2    0    0  0.00000000000E+00  0.00000000000E+00 -0.37344742823E+02  0.89848406188E+02  0.81719681093E+02 0.  0.
       11    1    3    3    0    0  0.35695538880E+02  0.54482280825E+01  0.23523136648E+01  0.36185467590E+02  0.00000000000E+00 0. -1.
      -12    1    3    3    0    0 -0.35695538880E+02 -0.54482280825E+01 -0.39697056488E+02  0.53662938598E+02  0.00000000000E+00 0.  1.
</event>
<event>
 6   2  0.6181100E+00  0.8683015E+02  0.7957747E-01  0.1310177E+00
        1   -1    0    0  502    0  0.00000000000E+00  0.00000000000E+00  0.30566603596E+02  0.30566603596E+02  0.00000000000E+00 0. -1.
       21   -1    0    0  501  502  0.00000000000E+00  0.00000000000E+00 -0.24943898827E+03  0.24943898827E+03  0.00000000000E+00 0. -1.
      -24    2    1    2    0    0  0.26912529452E+02  0.14863266825E+01 -0.34113455088E+02  0.93290955402E+02  0.82540784665E+02 0.  0.
       11    1    3    3    0    0  0.60659361962E+00  0.40101323241E+02 -0.15621895783E+02  0.43041000329E+02  0.00000000000E+00 0. -1.
      -12    1    3    3    0    0  0.26305935833E+02 -0.38614996558E+02 -0.18491559306E+02  0.50249955073E+02  0.00000000000E+00 0.  1.
        2    1    1    2  501    0 -0.26912529452E+02 -0.14863266825E+01 -0.18475892959E+03  0.18671463647E+03  0.00000000000E+00 0. -1.
</event>
<event>
 5   1  0.6181100E+00  0.8004667E+02  0.7957747E-01  0.1327439E+00
        3   -1    0    0  501    0  0.00000000000E+00  0.00000000000E+00  0.32305882570E+02  0.32305882570E+02  0.00000000000E+00 0. -1.
       -4   -1    0    0    0  501  0.00000000000E+00  0.00000000000E+00 -0.49584387432E+02  0.49584387432E+02  0.00000000000E+00 0.  1.
      -24    2    1    2    0    0  0.00000000000E+00  0.00000000000E+00 -0.17278504862E+02  0.81890270002E+02  0.80046671329E+02 0.  0.
       11    1    3    3    0    0 -0.27026090739E+02 -0.14760065123E+02  0.17515130700E+02  0.35426669424E+02  0.00000000000E+00 0. -1.
      -12    1    3    3    0    0  0.27026090739E+02  0.14760065123E+02 -0.34793635562E+02  0.46463600578E+02  0.00000000000E+00 0.  1.
</event>
<event>
 5   1  0.6181100E+00  0.8083331E+02  0.7957747E-01  0.1325340E+00
        1   -1    0    0  501    0  0.00000000000E+00  0.00000000000E+00  0.26992831178E+01  0.26992831178E+01  0.00000000000E+00 0. -1.
       -2   -1    0    0    0  501  0.00000000000E+00  0.00000000000E+00 -0.60516286236E+03  0.60516286236E+03  0.00000000000E+00 0.  1.
      -24    2    1    2    0    0  0.00000000000E+00  0.00000000000E+00 -0.60246357924E+03  0.60786214548E+03  0.80833307440E+02 0.  0.
       11    1    3    3    0    0  0.19536121400E+01 -0.26147182231E+02 -0.69938215219E+02  0.74691670801E+02  0.00000000000E+00 0. -1.
      -12    1    3    3    0    0 -0.19536121400E+01  0.26147182231E+02 -0.53252536402E+03  0.53317047468E+03  0.00000000000E+00 0.  1.
</event>
<event>
 4   3  0.6181100E+00  0.1814771E+03  0.7957747E-01  0.1172051E+00
       21   -1    0    0  503  502  0.00000000000E+00  0.00000000000E+00  0.36097389195E+03  0.36097389195E+03  0.00000000000E+00 0.  1.
       21   -1    0    0  501  503  0.00000000000E+00  0.00000000000E+00 -0.10873560488E+03  0.10873560488E+03  0.00000000000E+00 0.  1.
        6    1    1    2  501    0  0.65004523023E+01  0.54430557752E+02  0.31903461393E+02  0.18426006715E+03  0.17300000000E+03 0.  1.
       -6    1    1    2    0  502 -0.65004523023E+01 -0.54430557752E+02  0.22033482568E+03  0.28544942968E+03  0.17300000000E+03 0.  1.
</event>
<event>
 4   3  0.6181100E+00  0.1968764E+03  0.7957747E-01  0.1158557E+00
       21   -1    0    0  503  502  0.00000000000E+00  0.00000000000E+00  0.44503654154E+03  0.44503654154E+03  0.00000000000E+00 0.  1.
       21   -1    0    0  501  503  0.00000000000E+00  0.00000000000E+00 -0.32810344008E+03  0.32810344008E+03  0.00000000000E+00 0.  1.
        6    1    1    2  501    0 -0.85402705711E+02  0.39213273255E+02 -0.27284698865E+03  0.33646066956E+03  0.17300000000E+03 0.  1.
       -6    1    1    2    0  502  0.85402705711E+02 -0.39213273255E+02  0.38978009011E+03  0.43667931207E+03  0.17300000000E+03 0.  1.
</event>
<event>
 5   1  0.6181100E+00  0.7947142E+02  0.7957747E-01  0.1328992E+00
        3   -1    0    0  501    0  0.00000000000E+00  0.00000000000E+00  0.50248451952E+02  0.50248451952E+02  0.00000000000E+00 0. -1.
       -4   -1    0    0    0  501  0.00000000000E+00  0.00000000000E+00 -0.31422392729E+02  0.31422392729E+02  0.00000000000E+00 0.  1.
      -24    2    1    2    0    0  0.00000000000E+00  0.00000000000E+00  0.18826059223E+02  0.81670844682E+02  0.79471418543E+02 0.  0.
       11    1    3    3    0    0  0.18048485582E+01  0.16459311455E+02  0.46534180213E+02  0.49392270043E+02  0.00000000000E+00 0. -1.
      -12    1    3    3    0    0 -0.18048485582E+01 -0.16459311455E+02 -0.27708120990E+02  0.32278574639E+02  0.00000000000E+00 0.  1.
</event>
<event>
 5   1  0.6181100E+00  0.8029440E+02  0.7957747E-01  0.1326775E+00
        3   -1    0    0  501    0  0.00000000000E+00  0.00000000000E+00  0.72007453577E+02  0.72007453577E+02  0.00000000000E+00 0. -1.
       -4   -1    0    0    0  501  0.00000000000E+00  0.00000000000E+00 -0.22383759910E+02  0.22383759910E+02  0.00000000000E+00 0.  1.
      -24    2    1    2    0    0  0.00000000000E+00  0.00000000000E+00  0.49623693667E+02  0.94391213488E+02  0.80294397130E+02 0.  0.
       11    1    3    3    0    0  0.14593526915E+02  0.94505281070E+01  0.67352231028E+02  0.69560092968E+02  0.00000000000E+00 0. -1.
      -12    1    3    3    0    0 -0.14593526915E+02 -0.94505281070E+01 -0.17728537361E+02  0.24831120520E+02  0.00000000000E+00 0.  1.
</event>
<event>
 5   1  0.6181100E+00  0.8079415E+02  0.7957747E-01  0.1325444E+00
       -4   -1    0    0    0  501  0.00000000000E+00  0.00000000000E+00  0.13887042894E+03  0.13887042894E+03  0.00000000000E+00 0.  1.
        3   -1    0    0  501    0  0.00000000000E+00  0.00000000000E+00 -0.11751412494E+02  0.11751412494E+02  0.00000000000E+00 0. -1.
      -24    2    1    2    0    0  0.00000000000E+00  0.00000000000E+00  0.12711901645E+03  0.15062184144E+03  0.80794150625E+02 0.  0.
       11    1    3    3    0    0 -0.19535694319E+02  0.20762441667E+02  0.10201038641E+02  0.30278433346E+02  0.00000000000E+00 0. -1.
      -12    1    3    3    0    0  0.19535694319E+02 -0.20762441667E+02  0.11691797781E+03  0.12034340809E+03  0.00000000000E+00 0.  1.
</event>
<event>
 5   1  0.6181100E+00  0.8049345E+02  0.7957747E-01  0.1326244E+00
       -2   -1    0    0    0  501  0.00000000000E+00  0.00000000000E+00  0.51567193566E+02  0.51567193566E+02  0.00000000000E+00 0.  1.
        1   -1    0    0  501    0  0.00000000000E+00  0.00000000000E+00 -0.31411424956E+02  0.31411424956E+02  0.00000000000E+00 0. -1.
      -24    2    1    2    0    0  0.00000000000E+00  0.00000000000E+00  0.20155768610E+02  0.82978618523E+02  0.80493453918E+02 0.  0.
       11    1    3    3    0    0 -0.15886518708E+02 -0.19668569757E+02 -0.22202880287E+02  0.33648209551E+02  0.00000000000E+00 0. -1.
      -12    1    3    3    0    0  0.15886518708E+02  0.19668569757E+02  0.42358648897E+02  0.49330408972E+02  0.00000000000E+00 0.  1.
</event>
<event>
 5   1  0.6181100E+00  0.8183791E+02  0.7957747E-01  0.1322698E+00
       -2   -1    0    0    0  501  0.00000000000E+00  0.00000000000E+00  0.23179886491E+02  0.23179886491E+02  0.00000000000E+00 0.  1.
        1   -1    0    0  501    0  0.00000000000E+00  0.00000000000E+00 -0.72233347317E+02  0.72233347317E+02  0.00000000000E+00 0. -1.
      -24    2    1    2    0    0  0.00000000000E+00  0.00000000000E+00 -0.49053460825E+02  0.95413233808E+02  0.81837907884E+02 0.  0.
       11    1    3    3    0    0 -0.26348933207E+02 -0.16970030333E+02 -0.55198756782E+02  0.63475593427E+02  0.00000000000E+00 0. -1.
      -12    1    3    3    0    0  0.26348933207E+02  0.16970030333E+02  0.61452959569E+01  0.31937640380E+02  0.00000000000E+00 0.  1.
</event>
<event>
 5   1  0.6181100E+00  0.8139418E+02  0.7957747E-01  0.1323860E+00
       -2   -1    0    0    0  501  0.00000000000E+00  0.00000000000E+00  0.12651921593E+02  0.12651921593E+02  0.00000000000E+00 0.  1.
        1   -1    0    0  501    0  0.00000000000E+00  0.00000000000E+00 -0.13090920336E+03  0.13090920336E+03  0.00000000000E+00 0. -1.
      -24    2    1    2    0    0  0.00000000000E+00  0.00000000000E+00 -0.11825728177E+03  0.14356112496E+03  0.81394176125E+02 0.  0.
       11    1    3    3    0    0  0.36532516479E+02  0.11555228578E+02 -0.83319070761E+02  0.91707227743E+02  0.00000000000E+00 0. -1.
      -12    1    3    3    0    0 -0.36532516479E+02 -0.11555228578E+02 -0.34938211010E+02  0.51853897215E+02  0.00000000000E+00 0.  1.
</event>
<event>
 5   1  0.6181100E+00  0.7920679E+02  0.7957747E-01  0.1329711E+00
       -2   -1    0    0    0  501  0.00000000000E+00  0.00000000000E+00  0.41711844621E+03  0.41711844621E+03  0.00000000000E+00 0.  1.
        1   -1    0    0  501    0  0.00000000000E+00  0.00000000000E+00 -0.37601527542E+01  0.37601527542E+01  0.00000000000E+00 0. -1.
      -24    2    1    2    0    0  0.00000000000E+00  0.00000000000E+00  0.41335829345E+03  0.42087859896E+03  0.79206794515E+02 0.  0.
       11    1    3    3    0    0 -0.16523852086E+02 -0.31795778630E+00  0.15439487952E+02  0.22616732150E+02  0.00000000000E+00 0. -1.
      -12    1    3    3    0    0  0.16523852086E+02  0.31795778630E+00  0.39791880550E+03  0.39826186681E+03  0.00000000000E+00 0.  1.
</event>
<event>
 5   2  0.6181100E+00  0.1409097E+03  0.7957747E-01  0.1216053E+00
       -4   -1    0    0    0  501  0.00000000000E+00  0.00000000000E+00  0.54128964193E+03  0.54128964193E+03  0.00000000000E+00 0.  1.
        3   -1    0    0  502    0  0.00000000000E+00  0.00000000000E+00 -0.13331150659E+02  0.13331150659E+02  0.00000000000E+00 0. -1.
       11    1    1    2    0    0  0.40302857793E+02  0.23104491937E+02  0.36283557319E+02  0.58946029770E+02  0.00000000000E+00 0. -1.
      -12    1    1    2    0    0 -0.12907736174E+02 -0.21031857595E+02  0.37491123342E+03  0.37572247954E+03  0.00000000000E+00 0.  1.
       21    1    1    2  502  501 -0.27395121619E+02 -0.20726343423E+01  0.11676370053E+03  0.11995228328E+03  0.00000000000E+00 0.  1.
</event>
<event>
 6   2  0.6181100E+00  0.8952709E+02  0.7957747E-01  0.1303802E+00
       21   -1    0    0  501  502  0.00000000000E+00  0.00000000000E+00  0.43027869748E+02  0.43027869748E+02  0.00000000000E+00 0. -1.
        1   -1    0    0  502    0  0.00000000000E+00  0.00000000000E+00 -0.11335092291E+03  0.11335092291E+03  0.00000000000E+00 0. -1.
      -24    2    1    2    0    0 -0.21179271308E+02  0.41095811526E+02 -0.28277441893E+02  0.93886707678E+02  0.76665982682E+02 0.  0.
       11    1    3    3    0    0 -0.34513617904E+02  0.50151115866E+02  0.52390879945E+00  0.60881842316E+02  0.00000000000E+00 0. -1.
      -12    1    3    3    0    0  0.13334346596E+02 -0.90553043404E+01 -0.28801350693E+02  0.33004865362E+02  0.00000000000E+00 0.  1.
        2    1    1    2  501    0  0.21179271308E+02 -0.41095811526E+02 -0.42045611265E+02  0.62492084977E+02  0.00000000000E+00 0. -1.
</event>
<event>
 6   2  0.6181100E+00  0.8871874E+02  0.7957747E-01  0.1305686E+00
        3   -1    0    0  502    0  0.00000000000E+00  0.00000000000E+00  0.20608052851E+02  0.20608052851E+02  0.00000000000E+00 0. -1.
       21   -1    0    0  501  502  0.00000000000E+00  0.00000000000E+00 -0.20989120220E+03  0.20989120220E+03  0.00000000000E+00 0.  1.
      -24    2    1    2    0    0 -0.37342853383E+02 -0.18670362614E+02 -0.11447480010E+03  0.14482918877E+03  0.78281178603E+02 0.  0.
       11    1    3    3    0    0  0.24210409948E+02 -0.76787925522E+01 -0.24725307026E+02  0.35446418894E+02  0.00000000000E+00 0. -1.
      -12    1    3    3    0    0 -0.61553263331E+02 -0.10991570061E+02 -0.89749493076E+02  0.10938276988E+03  0.00000000000E+00 0.  1.
        4    1    1    2  501    0  0.37342853383E+02  0.18670362614E+02 -0.74808349252E+02  0.85670066281E+02  0.00000000000E+00 0. -1.
</event>
<event>
 5   1  0.6181100E+00  0.8029952E+02  0.7957747E-01  0.1326762E+00
        1   -1    0    0  501    0  0.00000000000E+00  0.00000000000E+00  0.37547725984E+02  0.37547725984E+02  0.00000000000E+00 0. -1.
       -2   -1    0    0    0  501  0.00000000000E+00  0.00000000000E+00 -0.42932115828E+02  0.42932115828E+02  0.00000000000E+00 0.  1.
      -24    2    1    2    0    0  0.00000000000E+00  0.00000000000E+00 -0.53843898443E+01  0.80479841812E+02  0.80299522316E+02 0.  0.
       11    1    3    3    0    0  0.15497834411E+02  0.21940210530E+02  0.27215183021E+02  0.38239010138E+02  0.00000000000E+00 0. -1.
      -12    1    3    3    0    0 -0.15497834411E+02 -0.21940210530E+02 -0.32599572865E+02  0.42240831674E+02  0.00000000000E+00 0.  1.
</event>
<event>
 5   1  0.6181100E+00  0.7936291E+02  0.7957747E-01  0.1329286E+00
       -4   -1    0    0    0  501  0.00000000000E+00  0.00000000000E+00  0.13346076616E+03  0.13346076616E+03  0.00000000000E+00 0.  1.
        3   -1    0    0  501    0  0.00000000000E+00  0.00000000000E+00 -0.11798357145E+02  0.11798357145E+02  0.00000000000E+00 0. -1.
      -24    2    1    2    0    0  0.00000000000E+00  0.00000000000E+00  0.12166240901E+03  0.14525912330E+03  0.79362907810E+02 0.  0.
       11    1    3    3    0    0  0.32172472107E+02  0.21207236269E+02  0.43486330306E+02  0.58102287005E+02  0.00000000000E+00 0. -1.
      -12    1    3    3    0    0 -0.32172472107E+02 -0.21207236269E+02  0.78176078704E+02  0.87156836296E+02  0.00000000000E+00 0.  1.
</event>
<event>
 5   1  0.6181100E+00  0.7956226E+02  0.7957747E-01  0.1328746E+00
       -4   -1    0    0    0  501  0.00000000000E+00  0.00000000000E+00  0.64289811279E+02  0.64289811279E+02  0.00000000000E+00 0.  1.
        3   -1    0    0  501    0  0.00000000000E+00  0.00000000000E+00 -0.24615691098E+02  0.24615691098E+02  0.00000000000E+00 0. -1.
      -24    2    1    2    0    0  0.00000000000E+00  0.00000000000E+00  0.39674120181E+02  0.88905502377E+02  0.79562255755E+02 0.  0.
       11    1    3    3    0    0 -0.32284570180E+02  0.47876901389E+01 -0.55786539074E+01  0.33110977455E+02  0.00000000000E+00 0. -1.
      -12    1    3    3    0    0  0.32284570180E+02 -0.47876901389E+01  0.45252774088E+02  0.55794524922E+02  0.00000000000E+00 0.  1.
</event>
<event>
 5   1  0.6181100E+00  0.8077380E+02  0.7957747E-01  0.1325498E+00
       -2   -1    0    0    0  501  0.00000000000E+00  0.00000000000E+00  0.10815018085E+03  0.10815018085E+03  0.00000000000E+00 0.  1.
        1   -1    0    0  501    0  0.00000000000E+00  0.00000000000E+00 -0.15081821449E+02  0.15081821449E+02  0.00000000000E+00 0. -1.
      -24    2    1    2    0    0  0.00000000000E+00  0.00000000000E+00  0.93068359404E+02  0.12323200230E+03  0.80773800636E+02 0.  0.
       11    1    3    3    0    0  0.27155819254E+02 -0.16349640879E+02  0.83518543384E+01  0.32779608709E+02  0.00000000000E+00 0. -1.
      -12    1    3    3    0    0 -0.27155819254E+02  0.16349640879E+02  0.84716505065E+02  0.90452393593E+02  0.00000000000E+00 0.  1.
</event>
<event>
 6   2  0.6181100E+00  0.9109441E+02  0.7957747E-01  0.1300212E+00
       21   -1    0    0  501  502  0.00000000000E+00  0.00000000000E+00  0.12098293907E+03  0.12098293907E+03  0.00000000000E+00 0. -1.
       -2   -1    0    0    0  501  0.00000000000E+00  0.00000000000E+00 -0.36772574233E+02  0.36772574233E+02  0.00000000000E+00 0.  1.
      -24    2    1    2    0    0 -0.40109730927E+02 -0.47973620609E+01  0.45578142303E+02  0.10186048834E+03  0.81647944438E+02 0.  0.
       11    1    3    3    0    0 -0.63947968311E+02  0.55182012835E+01  0.38855060352E+02  0.75030053388E+02  0.00000000000E+00 0. -1.
      -12    1    3    3    0    0  0.23838237384E+02 -0.10315563344E+02  0.67230819504E+01  0.26830434950E+02  0.00000000000E+00 0.  1.
       -1    1    1    2    0  502  0.40109730927E+02  0.47973620609E+01  0.38632222532E+02  0.55895024963E+02  0.00000000000E+00 0.  1.
</event>
<event>
 5   1  0.6181100E+00  0.8010892E+02  0.7957747E-01  0.1327272E+00
       -4   -1    0    0    0  501  0.00000000000E+00  0.00000000000E+00  0.71788998699E+02  0.71788998699E+02  0.00000000000E+00 0.  1.
        3   -1    0    0  501    0  0.00000000000E+00  0.00000000000E+00 -0.22348266857E+02  0.22348266857E+02  0.00000000000E+00 0. -1.
      -24    2    1    2    0    0  0.00000000000E+00  0.00000000000E+00  0.49440731842E+02  0.94137265555E+02  0.80108918362E+02 0.  0.
       11    1    3    3    0    0 -0.14233851674E+02  0.31392237862E+02  0.74441354285E+00  0.34476503346E+02  0.00000000000E+00 0. -1.
      -12    1    3    3    0    0  0.14233851674E+02 -0.31392237862E+02  0.48696318299E+02  0.59660762209E+02  0.00000000000E+00 0.  1.
</event>
<event>
 5   1  0.6181100E+00  0.8110539E+02  0.7957747E-01  0.1324620E+00
       -2   -1    0    0    0  501  0.00000000000E+00  0.00000000000E+00  0.50220442709E+01  0.50220442709E+01  0.00000000000E+00 0.  1.
        1   -1    0    0  501    0  0.00000000000E+00  0.00000000000E+00 -0.32746050853E+03  0.32746050853E+03  0.00000000000E+00 0. -1.
      -24    2    1    2    0    0  0.00000000000E+00  0.00000000000E+00 -0.32243846426E+03  0.33248255281E+03  0.81105392443E+02 0.  0.
       11    1    3    3    0    0 -0.40143204640E+02  0.49545627364E+01 -0.17316851164E+03  0.17782957570E+03  0.00000000000E+00 0. -1.
      -12    1    3    3    0    0  0.40143204640E+02 -0.49545627364E+01 -0.14926995262E+03  0.15465297710E+03  0.00000000000E+00 0.  1.
</event>
<event>
 5   1  0.6181100E+00  0.8053979E+02  0.7957747E-01  0.1326120E+00
        1   -1    0    0  501    0  0.00000000000E+00  0.00000000000E+00  0.39879439054E+01  0.39879439054E+01  0.00000000000E+00 0. -1.
       -2   -1    0    0    0  501  0.00000000000E+00  0.00000000000E+00 -0.40664177203E+03  0.40664177203E+03  0.00000000000E+00 0.  1.
      -24    2    1    2    0    0  0.00000000000E+00  0.00000000000E+00 -0.40265382813E+03  0.41062971594E+03  0.80539793306E+02 0.  0.
       11    1    3    3    0    0 -0.13720036000E+02 -0.30983090211E+02 -0.90387053668E+02  0.96529843767E+02  0.00000000000E+00 0. -1.
      -12    1    3    3    0    0  0.13720036000E+02  0.30983090211E+02 -0.31226677446E+03  0.31409987217E+03  0.00000000000E+00 0.  1.
</event>
<event>
 5   1  0.6181100E+00  0.8133476E+02  0.7957747E-01  0.1324016E+00
       -4   -1    0    0    0  501  0.00000000000E+00  0.00000000000E+00  0.28567445080E+02  0.28567445080E+02  0.00000000000E+00 0.  1.
        3   -1    0    0  501    0  0.00000000000E+00  0.00000000000E+00 -0.57892325541E+02  0.57892325541E+02  0.00000000000E+00 0. -1.
      -24    2    1    2    0    0  0.00000000000E+00  0.00000000000E+00 -0.29324880461E+02  0.86459770621E+02  0.81334760845E+02 0.  0.
       11    1    3    3    0    0  0.48254653978E+01  0.40226562635E+02 -0.10923061266E+02  0.41961586304E+02  0.00000000000E+00 0. -1.
      -12    1    3    3    0    0 -0.48254653978E+01 -0.40226562635E+02 -0.18401819195E+02  0.44498184316E+02  0.00000000000E+00 0.  1.
</event>
<event>
 5   1  0.6181100E+00  0.8044764E+02  0.7957747E-01  0.1326366E+00
       -2   -1    0    0    0  501  0.00000000000E+00  0.00000000000E+00  0.29316987281E+03  0.29316987281E+03  0.00000000000E+00 0.  1.
        1   -1    0    0  501    0  0.00000000000E+00  0.00000000000E+00 -0.55188328010E+01  0.55188328010E+01  0.00000000000E+00 0. -1.
      -24    2    1    2    0    0  0.00000000000E+00  0.00000000000E+00  0.28765104001E+03  0.29868870561E+03  0.80447635400E+02 0.  0.
       11    1    3    3    0    0 -0.53525979912E+01 -0.33846361697E+02  0.65615134530E+02  0.74024133800E+02  0.00000000000E+00 0. -1.
      -12    1    3    3    0    0  0.53525979912E+01  0.33846361697E+02  0.22203590548E+03  0.22466457181E+03  0.00000000000E+00 0.  1.
</event>
<event>
 5   1  0.6181100E+00  0.7565764E+02  0.7957747E-01  0.1339676E+00
        3   -1    0    0  501    0  0.00000000000E+00  0.00000000000E+00  0.16446453029E+02  0.16446453029E+02  0.00000000000E+00 0. -1.
       -4   -1    0    0    0  501  0.00000000000E+00  0.00000000000E+00 -0.87010824312E+02  0.87010824312E+02  0.00000000000E+00 0.  1.
      -24    2    1    2    0    0  0.00000000000E+00  0.00000000000E+00 -0.70564371283E+02  0.10345727734E+03  0.75657635042E+02 0.  0.
       11    1    3    3    0    0 -0.28104434901E+02 -0.25230322748E+02 -0.32352227862E+02  0.49730223151E+02  0.00000000000E+00 0. -1.
      -12    1    3    3    0    0  0.28104434901E+02  0.25230322748E+02 -0.38212143421E+02  0.53727054189E+02  0.00000000000E+00 0.  1.
</event>
<event>
 5   1  0.6181100E+00  0.7755483E+02  0.7957747E-01  0.1334274E+00
       -2   -1    0    0    0  501  0.00000000000E+00  0.00000000000E+00  0.10534795650E+03  0.10534795650E+03  0.00000000000E+00 0.  1.
        1   -1    0    0  501    0  0.00000000000E+00  0.00000000000E+00 -0.14273536606E+02  0.14273536606E+02  0.00000000000E+00 0. -1.
      -24    2    1    2    0    0  0.00000000000E+00  0.00000000000E+00  0.91074419892E+02  0.11962149310E+03  0.77554829982E+02 0.  0.
       11    1    3    3    0    0 -0.17990764008E+02 -0.86098185185E+01 -0.57556127241E+01  0.20758700401E+02  0.00000000000E+00 0. -1.
      -12    1    3    3    0    0  0.17990764008E+02  0.86098185185E+01  0.96830032617E+02  0.98862792703E+02  0.00000000000E+00 0.  1.
</event>
<event>
 5   1  0.6181100E+00  0.7903917E+02  0.7957747E-01  0.1330168E+00
        1   -1    0    0  501    0  0.00000000000E+00  0.00000000000E+00  0.17047558786E+02  0.17047558786E+02  0.00000000000E+00 0. -1.
       -2   -1    0    0    0  501  0.00000000000E+00  0.00000000000E+00 -0.91614144840E+02  0.91614144840E+02  0.00000000000E+00 0.  1.
      -24    2    1    2    0    0  0.00000000000E+00  0.00000000000E+00 -0.74566586055E+02  0.10866170363E+03  0.79039168006E+02 0.  0.
       11    1    3    3    0    0  0.31185344230E+02 -0.19237936205E+01 -0.40155091301E+01  0.31501602979E+02  0.00000000000E+00 0. -1.
      -12    1    3    3    0    0 -0.31185344230E+02  0.19237936205E+01 -0.70551076925E+02  0.77160100647E+02  0.00000000000E+00 0.  1.
</event>
<event>
 5   1  0.6181100E+00  0.7957449E+02  0.7957747E-01  0.1328713E+00
        1   -1    0    0  501    0  0.00000000000E+00  0.00000000000E+00  0.56839041346E+02  0.56839041346E+02  0.00000000000E+00 0. -1.
       -2   -1    0    0    0  501  0.00000000000E+00  0.00000000000E+00 -0.27851010833E+02  0.27851010833E+02  0.00000000000E+00 0.  1.
      -24    2    1    2    0    0  0.00000000000E+00  0.00000000000E+00  0.28988030513E+02  0.84690052179E+02  0.79574487275E+02 0.  0.
       11    1    3    3    0    0  0.17836595953E+02 -0.31516712236E+02  0.32033038564E+02  0.48348349145E+02  0.00000000000E+00 0. -1.
      -12    1    3    3    0    0 -0.17836595953E+02  0.31516712236E+02 -0.30450080510E+01  0.36341703034E+02  0.00000000000E+00 0.  1.
</event>
<event>
 5   1  0.6181100E+00  0.8095918E+02  0.7957747E-01  0.1325007E+00
        1   -1    0    0  501    0  0.00000000000E+00  0.00000000000E+00  0.56184718243E+02  0.56184718243E+02  0.00000000000E+00 0. -1.
       -2   -1    0    0    0  501  0.00000000000E+00  0.00000000000E+00 -0.29164463805E+02  0.29164463805E+02  0.00000000000E+00 0.  1.
      -24    2    1    2    0    0  0.00000000000E+00  0.00000000000E+00  0.27020254439E+02  0.85349182048E+02  0.80959179383E+02 0.  0.
       11    1    3    3    0    0 -0.25076007761E+02  0.31419618001E+02  0.18521702236E+02  0.44261179540E+02  0.00000000000E+00 0. -1.
      -12    1    3    3    0    0  0.25076007761E+02 -0.31419618001E+02  0.84985522021E+01  0.41088002508E+02  0.00000000000E+00 0.  1.
</event>
<event>
 4   3  0.6181100E+00  0.1785562E+03  0.7957747E-01  0.1174778E+00
       21   -1    0    0  501  502  0.00000000000E+00  0.00000000000E+00  0.92799649020E+03  0.92799649020E+03  0.00000000000E+00 0.  1.
       21   -1    0    0  502  503  0.00000000000E+00  0.00000000000E+00 -0.53670314862E+02  0.53670314862E+02  0.00000000000E+00 0.  1.
        6    1    1    2  501    0 -0.35444580684E+02  0.26400708538E+02  0.73160922708E+03  0.75308324697E+03  0.17300000000E+03 0.  1.
       -6    1    1    2    0  503  0.35444580684E+02 -0.26400708538E+02  0.14271694825E+03  0.22858355809E+03  0.17300000000E+03 0.  1.
</event>
<event>
 5   1  0.6181100E+00  0.6500961E+02  0.7957747E-01  0.1373738E+00
       -2   -1    0    0    0  501  0.00000000000E+00  0.00000000000E+00  0.17230623913E+02  0.17230623913E+02  0.00000000000E+00 0.  1.
        1   -1    0    0  501    0  0.00000000000E+00  0.00000000000E+00 -0.61318863720E+02  0.61318863720E+02  0.00000000000E+00 0. -1.
      -24    2    1    2    0    0  0.00000000000E+00  0.00000000000E+00 -0.44088239806E+02  0.78549487633E+02  0.65009607891E+02 0.  0.
       11    1    3    3    0    0  0.87549386694E+01 -0.19225249935E+02 -0.51893725391E+02  0.56028724072E+02  0.00000000000E+00 0. -1.
      -12    1    3    3    0    0 -0.87549386694E+01  0.19225249935E+02  0.78054855846E+01  0.22520763561E+02  0.00000000000E+00 0.  1.
</event>
<event>
 6   2  0.6181100E+00  0.9707325E+02  0.7957747E-01  0.1287230E+00
       21   -1    0    0  501  502  0.00000000000E+00  0.00000000000E+00  0.10376312378E+02  0.10376312378E+02  0.00000000000E+00 0.  1.
       -2   -1    0    0    0  501  0.00000000000E+00  0.00000000000E+00 -0.54884424141E+03  0.54884424141E+03  0.00000000000E+00 0.  1.
      -24    2    1    2    0    0 -0.36954252156E+02 -0.39167646669E+02 -0.34359974617E+03  0.35704901774E+03  0.80768150896E+02 0.  0.
       11    1    3    3    0    0 -0.41485837993E+02  0.13941681819E+02 -0.15675134724E+03  0.16274652103E+03  0.00000000000E+00 0. -1.
      -12    1    3    3    0    0  0.45315858378E+01 -0.53109328489E+02 -0.18684839893E+03  0.19430249671E+03  0.00000000000E+00 0.  1.
       -1    1    1    2    0  502  0.36954252156E+02  0.39167646669E+02 -0.19486818286E+03  0.20217153605E+03  0.00000000000E+00 0.  1.
</event>
<event>
 5   1  0.6181100E+00  0.7752224E+02  0.7957747E-01  0.1334365E+00
        1   -1    0    0  501    0  0.00000000000E+00  0.00000000000E+00  0.20100634254E+02  0.20100634254E+02  0.00000000000E+00 0. -1.
       -2   -1    0    0    0  501  0.00000000000E+00  0.00000000000E+00 -0.74745130546E+02  0.74745130546E+02  0.00000000000E+00 0.  1.
      -24    2    1    2    0    0  0.00000000000E+00  0.00000000000E+00 -0.54644496291E+02  0.94845764800E+02  0.77522242779E+02 0.  0.
       11    1    3    3    0    0 -0.29217054778E+02 -0.73261371020E+00  0.38281344836E+01  0.29475882113E+02  0.00000000000E+00 0. -1.
      -12    1    3    3    0    0  0.29217054778E+02  0.73261371020E+00 -0.58472630775E+02  0.65369882687E+02  0.00000000000E+00 0.  1.
</event>
<event>
 5   1  0.6181100E+00  0.8090921E+02  0.7957747E-01  0.1325139E+00
       -2   -1    0    0    0  501  0.00000000000E+00  0.00000000000E+00  0.10166434966E+02  0.10166434966E+02  0.00000000000E+00 0.  1.
        1   -1    0    0  501    0  0.00000000000E+00  0.00000000000E+00 -0.16097827493E+03  0.16097827493E+03  0.00000000000E+00 0. -1.
      -24    2    1    2    0    0  0.00000000000E+00  0.00000000000E+00 -0.15081183996E+03  0.17114470990E+03  0.80909212405E+02 0.  0.
       11    1    3    3    0    0  0.24496801473E+02 -0.14594418806E+02 -0.13610656486E+03  0.13906145167E+03  0.00000000000E+00 0. -1.
      -12    1    3    3    0    0 -0.24496801473E+02  0.14594418806E+02 -0.14705275110E+02  0.32083258231E+02  0.00000000000E+00 0.  1.
</event>
<event>
 6   2  0.6181100E+00  0.8408141E+02  0.7957747E-01  0.1316950E+00
       21   -1    0    0  501  502  0.00000000000E+00  0.00000000000E+00  0.44063440178E+03  0.44063440178E+03  0.00000000000E+00 0.  1.
       -2   -1    0    0    0  501  0.00000000000E+00  0.00000000000E+00 -0.25023415818E+02  0.25023415818E+02  0.00000000000E+00 0.  1.
      -24    2    1    2    0    0  0.15186968301E+01 -0.23845248198E+02  0.47103374530E+02  0.96376404601E+02  0.80615018267E+02 0.  0.
       11    1    3    3    0    0 -0.24765519216E+02 -0.26004418091E+02 -0.66323808041E+01  0.36517792614E+02  0.00000000000E+00 0. -1.
      -12    1    3    3    0    0  0.26284216046E+02  0.21591698925E+01  0.53735755334E+02  0.59858611987E+02  0.00000000000E+00 0.  1.
       -1    1    1    2    0  502 -0.15186968301E+01  0.23845248198E+02  0.36850761143E+03  0.36928141300E+03  0.00000000000E+00 0.  1.
</event>
<event>
 5   1  0.6181100E+00  0.8269887E+02  0.7957747E-01  0.1320468E+00
       -4   -1    0    0    0  501  0.00000000000E+00  0.00000000000E+00  0.19146825797E+03  0.19146825797E+03  0.00000000000E+00 0.  1.
        3   -1    0    0  501    0  0.00000000000E+00  0.00000000000E+00 -0.89298133321E+01  0.89298133321E+01  0.00000000000E+00 0. -1.
      -24    2    1    2    0    0  0.00000000000E+00  0.00000000000E+00  0.18253844464E+03  0.20039807131E+03  0.82698870675E+02 0.  0.
       11    1    3    3    0    0 -0.35278440642E+02 -0.11920942774E+02  0.47711870856E+02  0.60523548073E+02  0.00000000000E+00 0. -1.
      -12    1    3    3    0    0  0.35278440642E+02  0.11920942774E+02  0.13482657379E+03  0.13987452323E+03  0.00000000000E+00 0.  1.
</event>
<event>
 6   2  0.6181100E+00  0.1141704E+03  0.7957747E-01  0.1255246E+00
       21   -1    0    0  501  502  0.00000000000E+00  0.00000000000E+00  0.15678885686E+03  0.15678885686E+03  0.00000000000E+00 0.  1.
       -4   -1    0    0    0  501  0.00000000000E+00  0.00000000000E+00 -0.52735728081E+02  0.52735728081E+02  0.00000000000E+00 0.  1.
      -24    2    1    2    0    0  0.37013725331E+02  0.35753172609E+02  0.10897205483E+03  0.15782834670E+03  0.10191453809E+03 0.  0.
       11    1    3    3    0    0 -0.22395765059E+01  0.53024221141E+02  0.10116208866E+03  0.11423813686E+03  0.00000000000E+00 0. -1.
      -12    1    3    3    0    0  0.39253301837E+02 -0.17271048533E+02  0.78099661702E+01  0.43590209842E+02  0.00000000000E+00 0.  1.
       -3    1    1    2    0  502 -0.37013725331E+02 -0.35753172609E+02 -0.49189260548E+01  0.51696238238E+02  0.00000000000E+00 0.  1.
</event>
<event>
 6   2  0.6181100E+00  0.8370238E+02  0.7957747E-01  0.1317907E+00
       21   -1    0    0  501  502  0.00000000000E+00  0.00000000000E+00  0.74238958929E+01  0.74238958929E+01  0.00000000000E+00 0.  1.
        1   -1    0    0  502    0  0.00000000000E+00  0.00000000000E+00 -0.41822820949E+03  0.41822820949E+03  0.00000000000E+00 0. -1.
      -24    2    1    2    0    0  0.19126980018E+02 -0.17456386496E+02 -0.34315747124E+03  0.35321825919E+03  0.79595990854E+02 0.  0.
       11    1    3    3    0    0  0.32835280369E+02  0.20002325518E+02 -0.23102435264E+03  0.23420183641E+03  0.00000000000E+00 0. -1.
      -12    1    3    3    0    0 -0.13708300351E+02 -0.37458712014E+02 -0.11213311860E+03  0.11901642277E+03  0.00000000000E+00 0.  1.
        2    1    1    2  501    0 -0.19126980018E+02  0.17456386496E+02 -0.67646842359E+02  0.72433846200E+02  0.00000000000E+00 0. -1.
</event>
<event>
 5   1  0.6181100E+00  0.7114525E+02  0.7957747E-01  0.1353279E+00
        1   -1    0    0  501    0  0.00000000000E+00  0.00000000000E+00  0.22488307872E+02  0.22488307872E+02  0.00000000000E+00 0. -1.
       -2   -1    0    0    0  501  0.00000000000E+00  0.00000000000E+00 -0.56269754897E+02  0.56269754897E+02  0.00000000000E+00 0.  1.
      -24    2    1    2    0    0  0.00000000000E+00  0.00000000000E+00 -0.33781447026E+02  0.78758062769E+02  0.71145247824E+02 0.  0.
       11    1    3    3    0    0 -0.32313956637E+02  0.79411212855E+01 -0.29689289598E+01  0.33407600033E+02  0.00000000000E+00 0. -1.
      -12    1    3    3    0    0  0.32313956637E+02 -0.79411212855E+01 -0.30812518066E+02  0.45350462736E+02  0.00000000000E+00 0.  1.
</event>
<event>
 5   1  0.6181100E+00  0.8390726E+02  0.7957747E-01  0.1317389E+00
        1   -1    0    0  501    0  0.00000000000E+00  0.00000000000E+00  0.34268154717E+02  0.34268154717E+02  0.00000000000E+00 0. -1.
       -2   -1    0    0    0  501  0.00000000000E+00  0.00000000000E+00 -0.51362755997E+02  0.51362755997E+02  0.00000000000E+00 0.  1.
      -24    2    1    2    0    0  0.00000000000E+00  0.00000000000E+00 -0.17094601280E+02  0.85630910714E+02  0.83907255209E+02 0.  0.
       11    1    3    3    0    0 -0.18789931460E+02 -0.33506673061E+02  0.86617254920E+01  0.39379996856E+02  0.00000000000E+00 0. -1.
      -12    1    3    3    0    0  0.18789931460E+02  0.33506673061E+02 -0.25756326772E+02  0.46250913858E+02  0.00000000000E+00 0.  1.
</event>
<event>
 5   1  0.6181100E+00  0.8145094E+02  0.7957747E-01  0.1323711E+00
        3   -1    0    0  501    0  0.00000000000E+00  0.00000000000E+00  0.89656930133E+02  0.89656930133E+02  0.00000000000E+00 0. -1.
       -4   -1    0    0    0  501  0.00000000000E+00  0.00000000000E+00 -0.18499002906E+02  0.18499002906E+02  0.00000000000E+00 0.  1.
      -24    2    1    2    0    0  0.00000000000E+00  0.00000000000E+00  0.71157927227E+02  0.10815593304E+03  0.81450937651E+02 0.  0.
       11    1    3    3    0    0 -0.10520672604E+02 -0.39244758620E+02  0.39270378609E+02  0.56506621446E+02  0.00000000000E+00 0. -1.
      -12    1    3    3    0    0  0.10520672604E+02  0.39244758620E+02  0.31887548619E+02  0.51649311593E+02  0.00000000000E+00 0.  1.
</event>
<event>
 5   1  0.6181100E+00  0.8399543E+02  0.7957747E-01  0.1317166E+00
        1   -1    0    0  501    0  0.00000000000E+00  0.00000000000E+00  0.76292034003E+02  0.76292034003E+02  0.00000000000E+00 0. -1.
       -2   -1    0    0    0  501  0.00000000000E+00  0.00000000000E+00 -0.23119162876E+02  0.23119162876E+02  0.00000000000E+00 0.  1.
      -24    2    1    2    0    0  0.00000000000E+00  0.00000000000E+00  0.53172871128E+02  0.99411196879E+02  0.83995427500E+02 0.  0.
       11    1    3    3    0    0 -0.26312524888E+02  0.32243737821E+02  0.33260581739E+02  0.53275452999E+02  0.00000000000E+00 0. -1.
      -12    1    3    3    0    0  0.26312524888E+02 -0.32243737821E+02  0.19912289389E+02  0.46135743880E+02  0.00000000000E+00 0.  1.
</event>
<event>
 4   3  0.6181100E+00  0.1951774E+03  0.7957747E-01  0.1159978E+00
       21   -1    0    0  501  502  0.00000000000E+00  0.00000000000E+00  0.42515002086E+03  0.42515002086E+03  0.00000000000E+00 0.  1.
       21   -1    0    0  502  503  0.00000000000E+00  0.00000000000E+00 -0.10885155384E+03  0.10885155384E+03  0.00000000000E+00 0.  1.
        6    1    1    2  501    0  0.80036485520E+01  0.90006512887E+02  0.27043047065E+03  0.33350692678E+03  0.17300000000E+03 0.  1.
       -6    1    1    2    0  503 -0.80036485520E+01 -0.90006512887E+02  0.45867996366E+02  0.20049464792E+03  0.17300000000E+03 0.  1.
</event>
<event>
 5   1  0.6181100E+00  0.7757973E+02  0.7957747E-01  0.1334204E+00
        1   -1    0    0  501    0  0.00000000000E+00  0.00000000000E+00  0.19565832417E+03  0.19565832417E+03  0.00000000000E+00 0. -1.
       -2   -1    0    0    0  501  0.00000000000E+00  0.00000000000E+00 -0.76902110280E+01  0.76902110280E+01  0.00000000000E+00 0.  1.
      -24    2    1    2    0    0  0.00000000000E+00  0.00000000000E+00  0.18796811314E+03  0.20334853520E+03  0.77579734525E+02 0.  0.
       11    1    3    3    0    0  0.35886628772E+02  0.14305620622E+02  0.10312166732E+03  0.11012074816E+03  0.00000000000E+00 0. -1.
      -12    1    3    3    0    0 -0.35886628772E+02 -0.14305620622E+02  0.84846445823E+02  0.93227787032E+02  0.00000000000E+00 0.  1.
</event>
<event>
 5   1  0.6181100E+00  0.7959678E+02  0.7957747E-01  0.1328652E+00
        1   -1    0    0  501    0  0.00000000000E+00  0.00000000000E+00  0.10086259425E+02  0.10086259425E+02  0.00000000000E+00 0. -1.
       -2   -1    0    0    0  501  0.00000000000E+00  0.00000000000E+00 -0.15703660718E+03  0.15703660718E+03  0.00000000000E+00 0.  1.
      -24    2    1    2    0    0  0.00000000000E+00  0.00000000000E+00 -0.14695034775E+03  0.16712286660E+03  0.79596782831E+02 0.  0.
       11    1    3    3    0    0 -0.32199400858E+02 -0.11812386296E+02 -0.31086896470E+02  0.46289621059E+02  0.00000000000E+00 0. -1.
      -12    1    3    3    0    0  0.32199400858E+02  0.11812386296E+02 -0.11586345128E+03  0.12083324554E+03  0.00000000000E+00 0.  1.
</event>
<event>
 6   2  0.6181100E+00  0.1085505E+03  0.7957747E-01  0.1265026E+00
       21   -1    0    0  501  502  0.00000000000E+00  0.00000000000E+00  0.27354791374E+02  0.27354791374E+02  0.00000000000E+00 0. -1.
       -2   -1    0    0    0  501  0.00000000000E+00  0.00000000000E+00 -0.32686216172E+03  0.32686216172E+03  0.00000000000E+00 0.  1.
      -24    2    1    2    0    0 -0.56504338439E+02  0.51534801832E+02 -0.21070595268E+03  0.23702366045E+03  0.77036621513E+02 0.  0.
       11    1    3    3    0    0 -0.13584330530E+01  0.24028827274E+02 -0.83220288112E+01  0.25465389140E+02  0.00000000000E+00 0. -1.
      -12    1    3    3    0    0 -0.55145905386E+02  0.27505974557E+02 -0.20238392387E+03  0.21155827131E+03  0.00000000000E+00 0.  1.
       -1    1    1    2    0  502  0.56504338439E+02 -0.51534801832E+02 -0.88801417661E+02  0.11719329264E+03  0.00000000000E+00 0.  1.
</event>
<event>
 5   1  0.6181100E+00  0.7961669E+02  0.7957747E-01  0.1328598E+00
        1   -1    0    0  501    0  0.00000000000E+00  0.00000000000E+00  0.37694580402E+02  0.37694580402E+02  0.00000000000E+00 0. -1.
       -2   -1    0    0    0  501  0.00000000000E+00  0.00000000000E+00 -0.42040643479E+02  0.42040643479E+02  0.00000000000E+00 0.  1.
      -24    2    1    2    0    0  0.00000000000E+00  0.00000000000E+00 -0.43460630769E+01  0.79735223881E+02  0.79616692114E+02 0.  0.
       11    1    3    3    0    0  0.62372295107E+01 -0.29227579748E+02  0.24163457041E+02  0.38432110352E+02  0.00000000000E+00 0. -1.
      -12    1    3    3    0    0 -0.62372295107E+01  0.29227579748E+02 -0.28509520118E+02  0.41303113530E+02  0.00000000000E+00 0.  1.
</event>
<event>
 6   2  0.6181100E+00  0.8756046E+02  0.7957747E-01  0.1308425E+00
        3   -1    0    0  502    0  0.00000000000E+00  0.00000000000E+00  0.71945736937E+02  0.71945736937E+02  0.00000000000E+00 0. -1.
       21   -1    0    0  501  502  0.00000000000E+00  0.00000000000E+00 -0.87900008270E+02  0.87900008270E+02  0.00000000000E+00 0. -1.
      -24    2    1    2    0    0 -0.35368765119E+02  0.14340544986E+02  0.36594420727E+02  0.94899876873E+02  0.78805039341E+02 0.  0.
       11    1    3    3    0    0 -0.42088747664E+02  0.20770769920E+02 -0.94912991389E+01  0.47884990574E+02  0.00000000000E+00 0. -1.
      -12    1    3    3    0    0  0.67199825444E+01 -0.64302249339E+01  0.46085719866E+02  0.47014886298E+02  0.00000000000E+00 0.  1.
        4    1    1    2  501    0  0.35368765119E+02 -0.14340544986E+02 -0.52548692060E+02  0.64945868335E+02  0.00000000000E+00 0. -1.
</event>
<event>
 6   2  0.6181100E+00  0.8415093E+02  0.7957747E-01  0.1316775E+00
       21   -1    0    0  501  502  0.00000000000E+00  0.00000000000E+00  0.31518840512E+03  0.31518840512E+03  0.00000000000E+00 0.  1.
       -2   -1    0    0    0  501  0.00000000000E+00  0.00000000000E+00 -0.10709618653E+02  0.10709618653E+02  0.00000000000E+00 0.  1.
      -24    2    1    2    0    0  0.24237934558E+02  0.85616813176E+01  0.17873963637E+03  0.19755818691E+03  0.80128644986E+02 0.  0.
       11    1    3    3    0    0 -0.12416814400E+02 -0.22685790966E+02  0.11382361513E+03  0.11672462359E+03  0.00000000000E+00 0. -1.
      -12    1    3    3    0    0  0.36654748957E+02  0.31247472284E+02  0.64916021245E+02  0.80833563323E+02  0.00000000000E+00 0.  1.
       -1    1    1    2    0  502 -0.24237934558E+02 -0.85616813176E+01  0.12573915010E+03  0.12833983687E+03  0.00000000000E+00 0.  1.
</event>
<event>
 6   2  0.6181100E+00  0.8552821E+02  0.7957747E-01  0.1313349E+00
        1   -1    0    0  502    0  0.00000000000E+00  0.00000000000E+00  0.12059089908E+03  0.12059089908E+03  0.00000000000E+00 0. -1.
       -2   -1    0    0    0  501  0.00000000000E+00  0.00000000000E+00 -0.64162388947E+02  0.64162388947E+02  0.00000000000E+00 0.  1.
      -24    2    1    2    0    0 -0.10244825999E+01  0.29843820558E+02 -0.32077318035E+02  0.91345660876E+02  0.80145943369E+02 0.  0.
       11    1    3    3    0    0  0.30028091039E+02  0.38307979705E+02 -0.33565922394E+02  0.59125787155E+02  0.00000000000E+00 0. -1.
      -12    1    3    3    0    0 -0.31052573639E+02 -0.84641591471E+01  0.14886043587E+01  0.32219873721E+02  0.00000000000E+00 0.  1.
       21    1    1    2  502  501  0.10244825999E+01 -0.29843820558E+02  0.88505828171E+02  0.93407627153E+02  0.00000000000E+00 0. -1.
</event>
<event>
 5   1  0.6181100E+00  0.7895458E+02  0.7957747E-01  0.1330400E+00
        1   -1    0    0  501    0  0.00000000000E+00  0.00000000000E+00  0.12369007067E+03  0.12369007067E+03  0.00000000000E+00 0. -1.
       -2   -1    0    0    0  501  0.00000000000E+00  0.00000000000E+00 -0.12599688138E+02  0.12599688138E+02  0.00000000000E+00 0.  1.
      -24    2    1    2    0    0  0.00000000000E+00  0.00000000000E+00  0.11109038253E+03  0.13628975881E+03  0.78954577224E+02 0.  0.
       11    1    3    3    0    0 -0.10707269393E+02 -0.18776169360E+02  0.11256834792E+03  0.11462470549E+03  0.00000000000E+00 0. -1.
      -12    1    3    3    0    0  0.10707269393E+02  0.18776169360E+02 -0.14779653917E+01  0.21665053320E+02  0.00000000000E+00 0.  1.
</event>
<event>
 5   1  0.6181100E+00  0.8370949E+02  0.7957747E-01  0.1317889E+00
        1   -1    0    0  501    0  0.00000000000E+00  0.00000000000E+00  0.12527193540E+02  0.12527193540E+02  0.00000000000E+00 0. -1.
       -2   -1    0    0    0  501  0.00000000000E+00  0.00000000000E+00 -0.13984135279E+03  0.13984135279E+03  0.00000000000E+00 0.  1.
      -24    2    1    2    0    0  0.00000000000E+00  0.00000000000E+00 -0.12731415925E+03  0.15236854633E+03  0.83709490293E+02 0.  0.
       11    1    3    3    0    0  0.16583299147E+02  0.35877384414E+02 -0.38591895074E+02  0.55240627154E+02  0.00000000000E+00 0. -1.
      -12    1    3    3    0    0 -0.16583299147E+02 -0.35877384414E+02 -0.88722264174E+02  0.97127919174E+02  0.00000000000E+00 0.  1.
</event>
<event>
 5   1  0.6181100E+00  0.8065548E+02  0.7957747E-01  0.1325812E+00
       -2   -1    0    0    0  501  0.00000000000E+00  0.00000000000E+00  0.31579482331E+02  0.31579482331E+02  0.00000000000E+00 0.  1.
        1   -1    0    0  501    0  0.00000000000E+00  0.00000000000E+00 -0.51499466120E+02  0.51499466120E+02  0.00000000000E+00 0. -1.
      -24    2    1    2    0    0  0.00000000000E+00  0.00000000000E+00 -0.19919983789E+02  0.83078948451E+02  0.80655476699E+02 0.  0.
       11    1    3    3    0    0  0.13870136390E+02 -0.15411625623E+01 -0.48932963063E+02  0.50884091224E+02  0.00000000000E+00 0. -1.
      -12    1    3    3    0    0 -0.13870136390E+02  0.15411625623E+01  0.29012979274E+02  0.32194857227E+02  0.00000000000E+00 0.  1.
</event>
<event>
 5   1  0.6181100E+00  0.8046100E+02  0.7957747E-01  0.1326330E+00
        3   -1    0    0  501    0  0.00000000000E+00  0.00000000000E+00  0.24408846549E+02  0.24408846549E+02  0.00000000000E+00 0. -1.
       -4   -1    0    0    0  501  0.00000000000E+00  0.00000000000E+00 -0.66307652604E+02  0.66307652604E+02  0.00000000000E+00 0.  1.
      -24    2    1    2    0    0  0.00000000000E+00  0.00000000000E+00 -0.41898806055E+02  0.90716499153E+02  0.80461004653E+02 0.  0.
       11    1    3    3    0    0 -0.11240447910E+02  0.17779748942E+02  0.17714823373E+02  0.27500583790E+02  0.00000000000E+00 0. -1.
      -12    1    3    3    0    0  0.11240447910E+02 -0.17779748942E+02 -0.59613629427E+02  0.63215915363E+02  0.00000000000E+00 0.  1.
</event>
<event>
 6   2  0.6181100E+00  0.9642587E+02  0.7957747E-01  0.1288584E+00
        3   -1    0    0  502    0  0.00000000000E+00  0.00000000000E+00  0.88203313818E+02  0.88203313818E+02  0.00000000000E+00 0. -1.
       -4   -1    0    0    0  501  0.00000000000E+00  0.00000000000E+00 -0.92393735772E+02  0.92393735772E+02  0.00000000000E+00 0.  1.
      -24    2    1    2    0    0 -0.46650240716E+01  0.51727468546E+02  0.47352082077E+02  0.10742517539E+03  0.81243185433E+02 0.  0.
       11    1    3    3    0    0  0.19108700409E+02  0.26151964872E+02  0.61691460007E+02  0.69677140698E+02  0.00000000000E+00 0. -1.
      -12    1    3    3    0    0 -0.23773724481E+02  0.25575503674E+02 -0.14339377931E+02  0.37748034694E+02  0.00000000000E+00 0.  1.
       21    1    1    2  502  501  0.46650240716E+01 -0.51727468546E+02 -0.51542504032E+02  0.73171874198E+02  0.00000000000E+00 0.  1.
</event>
<event>
 5   1  0.6181100E+00  0.8768689E+02  0.7957747E-01  0.1308124E+00
        1   -1    0    0  501    0  0.00000000000E+00  0.00000000000E+00  0.11178943962E+01  0.11178943962E+01  0.00000000000E+00 0. -1.
       -2   -1    0    0    0  501  0.00000000000E+00  0.00000000000E+00 -0.17195253763E+04  0.17195253763E+04  0.00000000000E+00 0.  1.
      -24    2    1    2    0    0  0.00000000000E+00  0.00000000000E+00 -0.17184074819E+04  0.17206432707E+04  0.87686892572E+02 0.  0.
       11    1    3    3    0    0 -0.98465161850E+01  0.13140292776E+02 -0.61496506552E+02  0.63650934740E+02  0.00000000000E+00 0. -1.
      -12    1    3    3    0    0  0.98465161850E+01 -0.13140292776E+02 -0.16569109753E+04  0.16569923360E+04  0.00000000000E+00 0.  1.
</event>
<event>
 5   1  0.6181100E+00  0.8158165E+02  0.7957747E-01  0.1323368E+00
       -4   -1    0    0    0  501  0.00000000000E+00  0.00000000000E+00  0.50201489138E+02  0.50201489138E+02  0.00000000000E+00 0.  1.
        3   -1    0    0  501    0  0.00000000000E+00  0.00000000000E+00 -0.33144266119E+02  0.33144266119E+02  0.00000000000E+00 0. -1.
      -24    2    1    2    0    0  0.00000000000E+00  0.00000000000E+00  0.17057223019E+02  0.83345755257E+02  0.81581652731E+02 0.  0.
       11    1    3    3    0    0  0.28781468021E+02  0.10058655986E+02 -0.19156111779E+02  0.36007028206E+02  0.00000000000E+00 0. -1.
      -12    1    3    3    0    0 -0.28781468021E+02 -0.10058655986E+02  0.36213334798E+02  0.47338727052E+02  0.00000000000E+00 0.  1.
</event>
<event>
 5   1  0.6181100E+00  0.8006285E+02  0.7957747E-01  0.1327396E+00
        1   -1    0    0  501    0  0.00000000000E+00  0.00000000000E+00  0.56323218319E+01  0.56323218319E+01  0.00000000000E+00 0. -1.
       -2   -1    0    0    0  501  0.00000000000E+00  0.00000000000E+00 -0.28452119366E+03  0.28452119366E+03  0.00000000000E+00 0.  1.
      -24    2    1    2    0    0  0.00000000000E+00  0.00000000000E+00 -0.27888887182E+03  0.29015351549E+03  0.80062848579E+02 0.  0.
       11    1    3    3    0    0 -0.16178153499E+02  0.15488303753E+02 -0.19198697217E+02  0.29499325053E+02  0.00000000000E+00 0. -1.
      -12    1    3    3    0    0  0.16178153499E+02 -0.15488303753E+02 -0.25969017461E+03  0.26065419043E+03  0.00000000000E+00 0.  1.
</event>
<event>
 5   1  0.6181100E+00  0.8673082E+02  0.7957747E-01  0.1310417E+00
        1   -1    0    0  501    0  0.00000000000E+00  0.00000000000E+00  0.35039404001E+02  0.35039404001E+02  0.00000000000E+00 0. -1.
       -2   -1    0    0    0  501  0.00000000000E+00  0.00000000000E+00 -0.53669824414E+02  0.53669824414E+02  0.00000000000E+00 0.  1.
      -24    2    1    2    0    0  0.00000000000E+00  0.00000000000E+00 -0.18630420413E+02  0.88709228415E+02  0.86730817137E+02 0.  0.
       11    1    3    3    0    0 -0.10555694930E+02  0.15318382338E+00  0.33705055577E+02  0.35319639469E+02  0.00000000000E+00 0. -1.
      -12    1    3    3    0    0  0.10555694930E+02 -0.15318382338E+00 -0.52335475990E+02  0.53389588946E+02  0.00000000000E+00 0.  1.
</event>
<event>
 5   1  0.6181100E+00  0.7749329E+02  0.7957747E-01  0.1334446E+00
       -2   -1    0    0    0  501  0.00000000000E+00  0.00000000000E+00  0.40378089879E+03  0.40378089879E+03  0.00000000000E+00 0.  1.
        1   -1    0    0  501    0  0.00000000000E+00  0.00000000000E+00 -0.37181113556E+01  0.37181113556E+01  0.00000000000E+00 0. -1.
      -24    2    1    2    0    0  0.00000000000E+00  0.00000000000E+00  0.40006278744E+03  0.40749901015E+03  0.77493286031E+02 0.  0.
       11    1    3    3    0    0  0.12300584379E+02  0.24669052050E+02  0.56845818459E+02  0.63176843712E+02  0.00000000000E+00 0. -1.
      -12    1    3    3    0    0 -0.12300584379E+02 -0.24669052050E+02  0.34321696898E+03  0.34432216644E+03  0.00000000000E+00 0.  1.
</event>
<event>
 6   2  0.6181100E+00  0.8241273E+02  0.7957747E-01  0.1321206E+00
       21   -1    0    0  501  502  0.00000000000E+00  0.00000000000E+00  0.37790759688E+03  0.37790759688E+03  0.00000000000E+00 0.  1.
       -4   -1    0    0    0  501  0.00000000000E+00  0.00000000000E+00 -0.23569392684E+02  0.23569392684E+02  0.00000000000E+00 0.  1.
      -24    2    1    2    0    0 -0.16995952010E+01  0.23553017523E+02  0.50356983828E+02  0.96579932190E+02  0.78957103691E+02 0.  0.
       11    1    3    3    0    0  0.34349674471E+02 -0.70814983990E+01  0.22791778808E+02  0.41827179406E+02  0.00000000000E+00 0. -1.
      -12    1    3    3    0    0 -0.36049269672E+02  0.30634515922E+02  0.27565205020E+02  0.54752752784E+02  0.00000000000E+00 0.  1.
       -3    1    1    2    0  502  0.16995952010E+01 -0.23553017523E+02  0.30398122037E+03  0.30489705737E+03  0.00000000000E+00 0.  1.
</event>
<event>
 4   3  0.6181100E+00  0.2143283E+03  0.7957747E-01  0.1144812E+00
       -3   -1    0    0    0  501  0.00000000000E+00  0.00000000000E+00  0.26240324822E+03  0.26240324822E+03  0.00000000000E+00 0. -1.
        3   -1    0    0  502    0  0.00000000000E+00  0.00000000000E+00 -0.17573968465E+03  0.17573968465E+03  0.00000000000E+00 0.  1.
        6    1    1    2  502    0  0.12370094307E+03  0.26564619462E+02  0.56944712414E+02  0.22176406967E+03  0.17300000000E+03 0. -1.
       -6    1    1    2    0  501 -0.12370094307E+03 -0.26564619462E+02  0.29718851156E+02  0.21637886319E+03  0.17300000000E+03 0. -1.
</event>
<event>
 5   1  0.6181100E+00  0.8150684E+02  0.7957747E-01  0.1323564E+00
       -2   -1    0    0    0  501  0.00000000000E+00  0.00000000000E+00  0.60084103840E+01  0.60084103840E+01  0.00000000000E+00 0.  1.
        1   -1    0    0  501    0  0.00000000000E+00  0.00000000000E+00 -0.27641939524E+03  0.27641939524E+03  0.00000000000E+00 0. -1.
      -24    2    1    2    0    0  0.00000000000E+00  0.00000000000E+00 -0.27041098486E+03  0.28242780563E+03  0.81506838111E+02 0.  0.
       11    1    3    3    0    0 -0.39266505505E+01 -0.35491997798E+02 -0.20326066232E+03  0.20637344145E+03  0.00000000000E+00 0. -1.
      -12    1    3    3    0    0  0.39266505505E+01  0.35491997798E+02 -0.67150322542E+02  0.76054364173E+02  0.00000000000E+00 0.  1.
</event>
<event>
 6   2  0.6181100E+00  0.9170264E+02  0.7957747E-01  0.1298841E+00
       -2   -1    0    0    0  501  0.00000000000E+00  0.00000000000E+00  0.49634598176E+03  0.49634598176E+03  0.00000000000E+00 0.  1.
        1   -1    0    0  502    0  0.00000000000E+00  0.00000000000E+00 -0.91130861328E+01  0.91130861328E+01  0.00000000000E+00 0. -1.
      -24    2    1    2    0    0 -0.52515276388E+01 -0.42399769230E+02  0.34057295483E+03  0.35270286602E+03  0.81142191059E+02 0.  0.
       11    1    3    3    0    0 -0.85789383315E+01 -0.53902622864E+02  0.12028000881E+03  0.13208471317E+03  0.00000000000E+00 0. -1.
      -12    1    3    3    0    0  0.33274106927E+01  0.11502853634E+02  0.22029294601E+03  0.22061815285E+03  0.00000000000E+00 0.  1.
       21    1    1    2  502  501  0.52515276388E+01  0.42399769230E+02  0.14665994080E+03  0.15275620186E+03  0.00000000000E+00 0.  1.
</event>
<event>
 5   1  0.6181100E+00  0.8104638E+02  0.7957747E-01  0.1324776E+00
       -2   -1    0    0    0  501  0.00000000000E+00  0.00000000000E+00  0.32259095567E+02  0.32259095567E+02  0.00000000000E+00 0.  1.
        1   -1    0    0  501    0  0.00000000000E+00  0.00000000000E+00 -0.50904375430E+02  0.50904375430E+02  0.00000000000E+00 0. -1.
      -24    2    1    2    0    0  0.00000000000E+00  0.00000000000E+00 -0.18645279863E+02  0.83163470997E+02  0.81046384540E+02 0.  0.
       11    1    3    3    0    0  0.21676592294E+02  0.51675310841E+01 -0.44052752508E+02  0.49368239127E+02  0.00000000000E+00 0. -1.
      -12    1    3    3    0    0 -0.21676592294E+02 -0.51675310841E+01  0.25407472645E+02  0.33795231870E+02  0.00000000000E+00 0.  1.
</event>
<event>
 5   1  0.6181100E+00  0.7964525E+02  0.7957747E-01  0.1328521E+00
        1   -1    0    0  501    0  0.00000000000E+00  0.00000000000E+00  0.18277598706E+03  0.18277598706E+03  0.00000000000E+00 0. -1.
       -2   -1    0    0    0  501  0.00000000000E+00  0.00000000000E+00 -0.86764212813E+01  0.86764212813E+01  0.00000000000E+00 0.  1.
      -24    2    1    2    0    0  0.00000000000E+00  0.00000000000E+00  0.17409956578E+03  0.19145240834E+03  0.79645250050E+02 0.  0.
       11    1    3    3    0    0  0.32725434801E+02 -0.95682068266E+01  0.13650862726E+03  0.14070220318E+03  0.00000000000E+00 0. -1.
      -12    1    3    3    0    0 -0.32725434801E+02  0.95682068266E+01  0.37590938525E+02  0.50750205163E+02  0.00000000000E+00 0.  1.
</event>
<event>
 5   1  0.6181100E+00  0.8239572E+02  0.7957747E-01  0.1321250E+00
       -4   -1    0    0    0  501  0.00000000000E+00  0.00000000000E+00  0.72494555925E+02  0.72494555925E+02  0.00000000000E+00 0.  1.
        3   -1    0    0  501    0  0.00000000000E+00  0.00000000000E+00 -0.23412293101E+02  0.23412293101E+02  0.00000000000E+00 0. -1.
      -24    2    1    2    0    0  0.00000000000E+00  0.00000000000E+00  0.49082262825E+02  0.95906849026E+02  0.82395722984E+02 0.  0.
       11    1    3    3    0    0 -0.14171720898E+02 -0.31625224140E+02 -0.13889894527E+01  0.34683162584E+02  0.00000000000E+00 0. -1.
      -12    1    3    3    0    0  0.14171720898E+02  0.31625224140E+02  0.50471252278E+02  0.61223686442E+02  0.00000000000E+00 0.  1.
</event>
<event>
 5   1  0.6181100E+00  0.8082220E+02  0.7957747E-01  0.1325370E+00
        1   -1    0    0  501    0  0.00000000000E+00  0.00000000000E+00  0.61157281725E+01  0.61157281725E+01  0.00000000000E+00 0. -1.
       -2   -1    0    0    0  501  0.00000000000E+00  0.00000000000E+00 -0.26702578338E+03  0.26702578338E+03  0.00000000000E+00 0.  1.
      -24    2    1    2    0    0  0.00000000000E+00  0.00000000000E+00 -0.26091005521E+03  0.27314151155E+03  0.80822202548E+02 0.  0.
       11    1    3    3    0    0  0.28670892958E+02  0.79381253801E+01 -0.38024687373E+02  0.48279506909E+02  0.00000000000E+00 0. -1.
      -12    1    3    3    0    0 -0.28670892958E+02 -0.79381253801E+01 -0.22288536783E+03  0.22486200464E+03  0.00000000000E+00 0.  1.
</event>
<event>
 5   1  0.6181100E+00  0.7914593E+02  0.7957747E-01  0.1329877E+00
        1   -1    0    0  501    0  0.00000000000E+00  0.00000000000E+00  0.13151115913E+03  0.13151115913E+03  0.00000000000E+00 0. -1.
       -2   -1    0    0    0  501  0.00000000000E+00  0.00000000000E+00 -0.11907882607E+02  0.11907882607E+02  0.00000000000E+00 0.  1.
      -24    2    1    2    0    0  0.00000000000E+00  0.00000000000E+00  0.11960327652E+03  0.14341904174E+03  0.79145927108E+02 0.  0.
       11    1    3    3    0    0 -0.19229091780E+02  0.34243711697E+02  0.68610244422E+02  0.79055394510E+02  0.00000000000E+00 0. -1.
      -12    1    3    3    0    0  0.19229091780E+02 -0.34243711697E+02  0.50993032101E+02  0.64363647227E+02  0.00000000000E+00 0.  1.
</event>
<event>
 5   1  0.6181100E+00  0.8120863E+02  0.7957747E-01  0.1324348E+00
        3   -1    0    0  501    0  0.00000000000E+00  0.00000000000E+00  0.32715588449E+03  0.32715588449E+03  0.00000000000E+00 0. -1.
       -4   -1    0    0    0  501  0.00000000000E+00  0.00000000000E+00 -0.50395256696E+01  0.50395256696E+01  0.00000000000E+00 0.  1.
      -24    2    1    2    0    0  0.00000000000E+00  0.00000000000E+00  0.32211635882E+03  0.33219541016E+03  0.81208632000E+02 0.  0.
       11    1    3    3    0    0  0.35550479000E+02 -0.18824519335E+02  0.13846265384E+03  0.14418774426E+03  0.00000000000E+00 0. -1.
      -12    1    3    3    0    0 -0.35550479000E+02  0.18824519335E+02  0.18365370498E+03  0.18800766590E+03  0.00000000000E+00 0.  1.
</event>
<event>
 5   1  0.6181100E+00  0.8000093E+02  0.7957747E-01  0.1327562E+00
       -2   -1    0    0    0  501  0.00000000000E+00  0.00000000000E+00  0.97176055384E+02  0.97176055384E+02  0.00000000000E+00 0.  1.
        1   -1    0    0  501    0  0.00000000000E+00  0.00000000000E+00 -0.16465345562E+02  0.16465345562E+02  0.00000000000E+00 0. -1.
      -24    2    1    2    0    0  0.00000000000E+00  0.00000000000E+00  0.80710709822E+02  0.11364140095E+03  0.80000933301E+02 0.  0.
       11    1    3    3    0    0 -0.34125806418E+02 -0.12889400834E+02  0.17043120423E+02  0.40263820873E+02  0.00000000000E+00 0. -1.
      -12    1    3    3    0    0  0.34125806418E+02  0.12889400834E+02  0.63667589399E+02  0.73377580074E+02  0.00000000000E+00 0.  1.
</event>
<event>
 5   1  0.6181100E+00  0.8063851E+02  0.7957747E-01  0.1325857E+00
        3   -1    0    0  501    0  0.00000000000E+00  0.00000000000E+00  0.62103802019E+01  0.62103802019E+01  0.00000000000E+00 0. -1.
       -4   -1    0    0    0  501  0.00000000000E+00  0.00000000000E+00 -0.26176209441E+03  0.26176209441E+03  0.00000000000E+00 0.  1.
      -24    2    1    2    0    0  0.00000000000E+00  0.00000000000E+00 -0.25555171421E+03  0.26797247461E+03  0.80638505164E+02 0.  0.
       11    1    3    3    0    0  0.17614890305E+02  0.32516608880E+02 -0.18115616385E+03  0.18489231979E+03  0.00000000000E+00 0. -1.
      -12    1    3    3    0    0 -0.17614890305E+02 -0.32516608880E+02 -0.74395550357E+02  0.83080154829E+02  0.00000000000E+00 0.  1.
</event>
<event>
 5   1  0.6181100E+00  0.8179350E+02  0.7957747E-01  0.1322814E+00
        1   -1    0    0  501    0  0.00000000000E+00  0.00000000000E+00  0.34125825024E+02  0.34125825024E+02  0.00000000000E+00 0. -1.
       -2   -1    0    0    0  501  0.00000000000E+00  0.00000000000E+00 -0.49011097087E+02  0.49011097087E+02  0.00000000000E+00 0.  1.
      -24    2    1    2    0    0  0.00000000000E+00  0.00000000000E+00 -0.14885272063E+02  0.83136922112E+02  0.81793499092E+02 0.  0.
       11    1    3    3    0    0 -0.26329309489E+02 -0.29930794266E+02  0.18430096242E+01  0.39905910190E+02  0.00000000000E+00 0. -1.
      -12    1    3    3    0    0  0.26329309489E+02  0.29930794266E+02 -0.16728281687E+02  0.43231011922E+02  0.00000000000E+00 0.  1.
</event>
<event>
 5   1  0.6181100E+00  0.7991613E+02  0.7957747E-01  0.1327790E+00
       -2   -1    0    0    0  501  0.00000000000E+00  0.00000000000E+00  0.14879654963E+02  0.14879654963E+02  0.00000000000E+00 0.  1.
        1   -1    0    0  501    0  0.00000000000E+00  0.00000000000E+00 -0.10730402403E+03  0.10730402403E+03  0.00000000000E+00 0. -1.
      -24    2    1    2    0    0  0.00000000000E+00  0.00000000000E+00 -0.92424369063E+02  0.12218367899E+03  0.79916127376E+02 0.  0.
       11    1    3    3    0    0 -0.32411670259E+02 -0.19643785273E+02 -0.65566630639E+02  0.75732276620E+02  0.00000000000E+00 0. -1.
      -12    1    3    3    0    0  0.32411670259E+02  0.19643785273E+02 -0.26857738424E+02  0.46451402369E+02  0.00000000000E+00 0.  1.
</event>
<event>
 4   1  0.6181100E+00  0.1115430E+03  0.7957747E-01  0.1259738E+00
        1   -1    0    0  501    0  0.00000000000E+00  0.00000000000E+00  0.37661327772E+03  0.37661327772E+03  0.00000000000E+00 0. -1.
       -2   -1    0    0    0  501  0.00000000000E+00  0.00000000000E+00 -0.82590360815E+01  0.82590360815E+01  0.00000000000E+00 0.  1.
       11    1    1    2    0    0  0.28643104256E+02 -0.42258552563E+02  0.26165845982E+03  0.26659212719E+03  0.00000000000E+00 0. -1.
      -12    1    1    2    0    0 -0.28643104256E+02  0.42258552563E+02  0.10669578182E+03  0.11828018661E+03  0.00000000000E+00 0.  1.
</event>
<event>
 6   2  0.6181100E+00  0.8502004E+02  0.7957747E-01  0.1314605E+00
       -2   -1    0    0    0  501  0.00000000000E+00  0.00000000000E+00  0.77327339664E+02  0.77327339664E+02  0.00000000000E+00 0.  1.
       21   -1    0    0  501  502  0.00000000000E+00  0.00000000000E+00 -0.58804603396E+02  0.58804603396E+02  0.00000000000E+00 0.  1.
      -24    2    1    2    0    0  0.17702692391E+02  0.15506520082E+02  0.48608945311E+02  0.97934856030E+02  0.81698035340E+02 0.  0.
       11    1    3    3    0    0 -0.28774604489E+01  0.37564979826E+02 -0.33805674797E+01  0.37826389260E+02  0.00000000000E+00 0. -1.
      -12    1    3    3    0    0  0.20580152840E+02 -0.22058459744E+02  0.51989512791E+02  0.60108466770E+02  0.00000000000E+00 0.  1.
       -1    1    1    2    0  502 -0.17702692391E+02 -0.15506520082E+02 -0.30086209043E+02  0.38197087029E+02  0.00000000000E+00 0.  1.
</event>
<event>
 5   1  0.6181100E+00  0.8045389E+02  0.7957747E-01  0.1326349E+00
       -4   -1    0    0    0  501  0.00000000000E+00  0.00000000000E+00  0.26510470040E+02  0.26510470040E+02  0.00000000000E+00 0.  1.
        3   -1    0    0  501    0  0.00000000000E+00  0.00000000000E+00 -0.61040309030E+02  0.61040309030E+02  0.00000000000E+00 0. -1.
      -24    2    1    2    0    0  0.00000000000E+00  0.00000000000E+00 -0.34529838989E+02  0.87550779070E+02  0.80453894468E+02 0.  0.
       11    1    3    3    0    0 -0.25673862832E+02  0.15084108959E+02 -0.46697539771E+02  0.55383551678E+02  0.00000000000E+00 0. -1.
      -12    1    3    3    0    0  0.25673862832E+02 -0.15084108959E+02  0.12167700782E+02  0.32167227392E+02  0.00000000000E+00 0.  1.
</event>
<event>
 4   3  0.6181100E+00  0.2806862E+03  0.7957747E-01  0.1103244E+00
       21   -1    0    0  501  502  0.00000000000E+00  0.00000000000E+00  0.87459287455E+03  0.87459287455E+03  0.00000000000E+00 0.  1.
       21   -1    0    0  502  503  0.00000000000E+00  0.00000000000E+00 -0.90242972163E+02  0.90242972163E+02  0.00000000000E+00 0.  1.
        6    1    1    2  501    0  0.49584029295E+02 -0.21540001452E+03  0.41257378356E+03  0.49900087084E+03  0.17300000000E+03 0.  1.
       -6    1    1    2    0  503 -0.49584029295E+02  0.21540001452E+03  0.37177611883E+03  0.46583497588E+03  0.17300000000E+03 0.  1.
</event>
<event>
 5   1  0.6181100E+00  0.8104889E+02  0.7957747E-01  0.1324769E+00
       -4   -1    0    0    0  501  0.00000000000E+00  0.00000000000E+00  0.88829485945E+02  0.88829485945E+02  0.00000000000E+00 0.  1.
        3   -1    0    0  501    0  0.00000000000E+00  0.00000000000E+00 -0.18487450002E+02  0.18487450002E+02  0.00000000000E+00 0. -1.
      -24    2    1    2    0    0  0.00000000000E+00  0.00000000000E+00  0.70342035943E+02  0.10731693595E+03  0.81048890927E+02 0.  0.
       11    1    3    3    0    0 -0.36520473575E+02  0.11853689608E+02  0.52332091817E+02  0.64906877766E+02  0.00000000000E+00 0. -1.
      -12    1    3    3    0    0  0.36520473575E+02 -0.11853689608E+02  0.18009944126E+02  0.42410058180E+02  0.00000000000E+00 0.  1.
</event>
<event>
 5   1  0.6181100E+00  0.8021334E+02  0.7957747E-01  0.1326992E+00
       -4   -1    0    0    0  501  0.00000000000E+00  0.00000000000E+00  0.47903697039E+02  0.47903697039E+02  0.00000000000E+00 0.  1.
        3   -1    0    0  501    0  0.00000000000E+00  0.00000000000E+00 -0.33578726596E+02  0.33578726596E+02  0.00000000000E+00 0. -1.
      -24    2    1    2    0    0  0.00000000000E+00  0.00000000000E+00  0.14324970443E+02  0.81482423636E+02  0.80213344173E+02 0.  0.
       11    1    3    3    0    0 -0.15171680994E+02  0.36858571154E+02  0.26411133230E+01  0.39946334642E+02  0.00000000000E+00 0. -1.
      -12    1    3    3    0    0  0.15171680994E+02 -0.36858571154E+02  0.11683857120E+02  0.41536088994E+02  0.00000000000E+00 0.  1.
</event>
<event>
 5   1  0.6181100E+00  0.7919353E+02  0.7957747E-01  0.1329747E+00
       -2   -1    0    0    0  501  0.00000000000E+00  0.00000000000E+00  0.29121304954E+01  0.29121304954E+01  0.00000000000E+00 0.  1.
        1   -1    0    0  501    0  0.00000000000E+00  0.00000000000E+00 -0.53840431073E+03  0.53840431073E+03  0.00000000000E+00 0. -1.
      -24    2    1    2    0    0  0.00000000000E+00  0.00000000000E+00 -0.53549218023E+03  0.54131644123E+03  0.79193525294E+02 0.  0.
       11    1    3    3    0    0  0.36672741495E+02 -0.10194786088E+02 -0.19315603665E+03  0.19687071424E+03  0.00000000000E+00 0. -1.
      -12    1    3    3    0    0 -0.36672741495E+02  0.10194786088E+02 -0.34233614359E+03  0.34444572699E+03  0.00000000000E+00 0.  1.
</event>
<event>
 5   1  0.6181100E+00  0.7738820E+02  0.7957747E-01  0.1334741E+00
        1   -1    0    0  501    0  0.00000000000E+00  0.00000000000E+00  0.17950181680E+03  0.17950181680E+03  0.00000000000E+00 0. -1.
       -2   -1    0    0    0  501  0.00000000000E+00  0.00000000000E+00 -0.83410487802E+01  0.83410487802E+01  0.00000000000E+00 0.  1.
      -24    2    1    2    0    0  0.00000000000E+00  0.00000000000E+00  0.17116076802E+03  0.18784286558E+03  0.77388200911E+02 0.  0.
       11    1    3    3    0    0  0.48375219790E+01 -0.32379220690E+02  0.13564464537E+03  0.13953954769E+03  0.00000000000E+00 0. -1.
      -12    1    3    3    0    0 -0.48375219790E+01  0.32379220690E+02  0.35516122652E+02  0.48303317894E+02  0.00000000000E+00 0.  1.
</event>
<event>
 6   2  0.6181100E+00  0.1324911E+03  0.7957747E-01  0.1227271E+00
       -2   -1    0    0    0  501  0.00000000000E+00  0.00000000000E+00  0.28929633302E+02  0.28929633302E+02  0.00000000000E+00 0.  1.
       21   -1    0    0  501  502  0.00000000000E+00  0.00000000000E+00 -0.50272455885E+03  0.50272455885E+03  0.00000000000E+00 0.  1.
      -24    2    1    2    0    0  0.21575791771E+02 -0.10260913984E+03 -0.21661537775E+03  0.25392146060E+03  0.80992196584E+02 0.  0.
       11    1    3    3    0    0 -0.25637525699E+02 -0.25955276145E+02 -0.10101198483E+03  0.10739823166E+03  0.00000000000E+00 0. -1.
      -12    1    3    3    0    0  0.47213317470E+02 -0.76653863693E+02 -0.11560339292E+03  0.14652322894E+03  0.00000000000E+00 0.  1.
       -1    1    1    2    0  502 -0.21575791771E+02  0.10260913984E+03 -0.25717954779E+03  0.27773273155E+03  0.00000000000E+00 0.  1.
</event>
<event>
 4   3  0.6181100E+00  0.3228165E+03  0.7957747E-01  0.1082858E+00
       21   -1    0    0  503  502  0.00000000000E+00  0.00000000000E+00  0.88067523267E+03  0.88067523267E+03  0.00000000000E+00 0. -1.
       21   -1    0    0  501  503  0.00000000000E+00  0.00000000000E+00 -0.12031895508E+03  0.12031895508E+03  0.00000000000E+00 0.  1.
        6    1    1    2  501    0  0.20090556886E+03 -0.18416968118E+03  0.31583238432E+03  0.45161998854E+03  0.17300000000E+03 0.  1.
       -6    1    1    2    0  502 -0.20090556886E+03  0.18416968118E+03  0.44452389327E+03  0.54937419921E+03  0.17300000000E+03 0. -1.
</event>
<event>
 5   1  0.6181100E+00  0.8034631E+02  0.7957747E-01  0.1326637E+00
       -2   -1    0    0    0  501  0.00000000000E+00  0.00000000000E+00  0.13997480790E+03  0.13997480790E+03  0.00000000000E+00 0.  1.
        1   -1    0    0  501    0  0.00000000000E+00  0.00000000000E+00 -0.11529804824E+02  0.11529804824E+02  0.00000000000E+00 0. -1.
      -24    2    1    2    0    0  0.00000000000E+00  0.00000000000E+00  0.12844500308E+03  0.15150461272E+03  0.80346305835E+02 0.  0.
       11    1    3    3    0    0 -0.23702581814E+02 -0.32361139243E+02  0.68365130017E+02  0.79264410173E+02  0.00000000000E+00 0. -1.
      -12    1    3    3    0    0  0.23702581814E+02  0.32361139243E+02  0.60079873061E+02  0.72240202552E+02  0.00000000000E+00 0.  1.
</event>
<event>
 6   2  0.6181100E+00  0.1127778E+03  0.7957747E-01  0.1257610E+00
        1   -1    0    0  502    0  0.00000000000E+00  0.00000000000E+00  0.42488201533E+02  0.42488201533E+02  0.00000000000E+00 0. -1.
       21   -1    0    0  501  502  0.00000000000E+00  0.00000000000E+00 -0.30892209301E+03  0.30892209301E+03  0.00000000000E+00 0. -1.
      -24    2    1    2    0    0 -0.58954295053E+02  0.53722664724E+02 -0.55084708018E+02  0.12551162045E+03  0.79731475587E+02 0.  0.
       11    1    3    3    0    0 -0.76834731915E+02  0.28692940106E+02 -0.39992482635E+02  0.91248339753E+02  0.00000000000E+00 0. -1.
      -12    1    3    3    0    0  0.17880436862E+02  0.25029724618E+02 -0.15092225383E+02  0.34263280693E+02  0.00000000000E+00 0.  1.
        2    1    1    2  501    0  0.58954295053E+02 -0.53722664724E+02 -0.21134918346E+03  0.22589867410E+03  0.00000000000E+00 0. -1.
</event>
<event>
 5   1  0.6181100E+00  0.8027499E+02  0.7957747E-01  0.1326827E+00
       -4   -1    0    0    0  501  0.00000000000E+00  0.00000000000E+00  0.84149629529E+02  0.84149629529E+02  0.00000000000E+00 0.  1.
        3   -1    0    0  501    0  0.00000000000E+00  0.00000000000E+00 -0.19144688169E+02  0.19144688169E+02  0.00000000000E+00 0. -1.
      -24    2    1    2    0    0  0.00000000000E+00  0.00000000000E+00  0.65004941359E+02  0.10329431770E+03  0.80274987807E+02 0.  0.
       11    1    3    3    0    0  0.15280462242E+02 -0.14917470299E+02 -0.11228209217E+02  0.24126668413E+02  0.00000000000E+00 0. -1.
      -12    1    3    3    0    0 -0.15280462242E+02  0.14917470299E+02  0.76233150577E+02  0.79167649285E+02  0.00000000000E+00 0.  1.
</event>
<event>
 6   2  0.6181100E+00  0.6875954E+02  0.7957747E-01  0.1360944E+00
        3   -1    0    0  502    0  0.00000000000E+00  0.00000000000E+00  0.40709295840E+02  0.40709295840E+02  0.00000000000E+00 0. -1.
       21   -1    0    0  501  502  0.00000000000E+00  0.00000000000E+00 -0.14967442810E+03  0.14967442810E+03  0.00000000000E+00 0. -1.
      -24    2    1    2    0    0  0.44051063804E+02  0.48155597241E+01  0.41637054684E+01  0.68885494473E+02  0.52575555801E+02 0.  0.
       11    1    3    3    0    0  0.28056702217E+02 -0.11042467260E+02  0.24260359650E+02  0.38699866573E+02  0.00000000000E+00 0. -1.
      -12    1    3    3    0    0  0.15994361588E+02  0.15858026984E+02 -0.20096654181E+02  0.30185627900E+02  0.00000000000E+00 0.  1.
        4    1    1    2  501    0 -0.44051063804E+02 -0.48155597241E+01 -0.11312883772E+03  0.12149822946E+03  0.00000000000E+00 0. -1.
</event>
<event>
 5   1  0.6181100E+00  0.7948256E+02  0.7957747E-01  0.1328962E+00
       -4   -1    0    0    0  501  0.00000000000E+00  0.00000000000E+00  0.10456293247E+03  0.10456293247E+03  0.00000000000E+00 0.  1.
        3   -1    0    0  501    0  0.00000000000E+00  0.00000000000E+00 -0.15104486919E+02  0.15104486919E+02  0.00000000000E+00 0. -1.
      -24    2    1    2    0    0  0.00000000000E+00  0.00000000000E+00  0.89458445556E+02  0.11966741939E+03  0.79482562761E+02 0.  0.
       11    1    3    3    0    0  0.28082578254E+02 -0.22464221835E+02  0.19263224696E+02  0.40796375939E+02  0.00000000000E+00 0. -1.
      -12    1    3    3    0    0 -0.28082578254E+02  0.22464221835E+02  0.70195220860E+02  0.78871043455E+02  0.00000000000E+00 0.  1.
</event>
<event>
 5   1  0.6181100E+00  0.8093484E+02  0.7957747E-01  0.1325071E+00
       -4   -1    0    0    0  501  0.00000000000E+00  0.00000000000E+00  0.19134532695E+02  0.19134532695E+02  0.00000000000E+00 0.  1.
        3   -1    0    0  501    0  0.00000000000E+00  0.00000000000E+00 -0.85584107092E+02  0.85584107092E+02  0.00000000000E+00 0. -1.
      -24    2    1    2    0    0  0.00000000000E+00  0.00000000000E+00 -0.66449574397E+02  0.10471863979E+03  0.80934835400E+02 0.  0.
       11    1    3    3    0    0  0.14661793073E+02  0.28122850633E+02 -0.65745554455E+02  0.72995485028E+02  0.00000000000E+00 0. -1.
      -12    1    3    3    0    0 -0.14661793073E+02 -0.28122850633E+02 -0.70401994227E+00  0.31723154760E+02  0.00000000000E+00 0.  1.
</event>
<event>
 6   2  0.6181100E+00  0.9208080E+02  0.7957747E-01  0.1297994E+00
       21   -1    0    0  501  502  0.00000000000E+00  0.00000000000E+00  0.40241984652E+02  0.40241984652E+02  0.00000000000E+00 0. -1.
        1   -1    0    0  502    0  0.00000000000E+00  0.00000000000E+00 -0.33991775264E+03  0.33991775264E+03  0.00000000000E+00 0. -1.
      -24    2    1    2    0    0 -0.43220734488E+02 -0.11349350181E+02 -0.16583345566E+02  0.93562181001E+02  0.80511084480E+02 0.  0.
       11    1    3    3    0    0 -0.62223645839E+02 -0.23187984909E+02 -0.22996159095E+02  0.70272954105E+02  0.00000000000E+00 0. -1.
      -12    1    3    3    0    0  0.19002911350E+02  0.11838634728E+02  0.64128135289E+01  0.23289226895E+02  0.00000000000E+00 0.  1.
        2    1    1    2  501    0  0.43220734488E+02  0.11349350181E+02 -0.28309242242E+03  0.28659755629E+03  0.00000000000E+00 0. -1.
</event>
<event>
 5   1  0.6181100E+00  0.8454214E+02  0.7957747E-01  0.1315794E+00
       -2   -1    0    0    0  501  0.00000000000E+00  0.00000000000E+00  0.48429820382E+03  0.48429820382E+03  0.00000000000E+00 0.  1.
        1   -1    0    0  501    0  0.00000000000E+00  0.00000000000E+00 -0.36895520510E+01  0.36895520510E+01  0.00000000000E+00 0. -1.
      -24    2    1    2    0    0  0.00000000000E+00  0.00000000000E+00  0.48060865177E+03  0.48798775587E+03  0.84542141709E+02 0.  0.
       11    1    3    3    0    0 -0.22015949174E+02 -0.22438368107E+02  0.77180675342E+02  0.83336900755E+02  0.00000000000E+00 0. -1.
      -12    1    3    3    0    0  0.22015949174E+02  0.22438368107E+02  0.40342797642E+03  0.40465085511E+03  0.00000000000E+00 0.  1.
</event>
<event>
 5   1  0.6181100E+00  0.8089656E+02  0.7957747E-01  0.1325172E+00
       -2   -1    0    0    0  501  0.00000000000E+00  0.00000000000E+00  0.29939056559E+02  0.29939056559E+02  0.00000000000E+00 0.  1.
        1   -1    0    0  501    0  0.00000000000E+00  0.00000000000E+00 -0.54646457638E+02  0.54646457638E+02  0.00000000000E+00 0. -1.
      -24    2    1    2    0    0  0.00000000000E+00  0.00000000000E+00 -0.24707401079E+02  0.84585514197E+02  0.80896560766E+02 0.  0.
       11    1    3    3    0    0  0.22110719093E+02  0.33847467131E+02 -0.11061016476E+02  0.41915164506E+02  0.00000000000E+00 0. -1.
      -12    1    3    3    0    0 -0.22110719093E+02 -0.33847467131E+02 -0.13646384602E+02  0.42670349691E+02  0.00000000000E+00 0.  1.
</event>
<event>
 6   2  0.6181100E+00  0.8507861E+02  0.7957747E-01  0.1314459E+00
       -2   -1    0    0    0  501  0.00000000000E+00  0.00000000000E+00  0.12419132394E+03  0.12419132394E+03  0.00000000000E+00 0.  1.
        1   -1    0    0  502    0  0.00000000000E+00  0.00000000000E+00 -0.25962120849E+02  0.25962120849E+02  0.00000000000E+00 0. -1.
      -24    2    1    2    0    0 -0.25594699469E+02 -0.72972708163E+01  0.85620750295E+02  0.12070328547E+03  0.80808609930E+02 0.  0.
       11    1    3    3    0    0  0.14364504466E+02 -0.10576151495E+02 -0.74751123370E+01  0.19340922249E+02  0.00000000000E+00 0. -1.
      -12    1    3    3    0    0 -0.39959203935E+02  0.32788806791E+01  0.93095862632E+02  0.10136236322E+03  0.00000000000E+00 0.  1.
       21    1    1    2  502  501  0.25594699469E+02  0.72972708163E+01  0.12608452796E+02  0.29450159323E+02  0.00000000000E+00 0. -1.
</event>
<event>
 5   1  0.6181100E+00  0.8239164E+02  0.7957747E-01  0.1321260E+00
        3   -1    0    0  501    0  0.00000000000E+00  0.00000000000E+00  0.37583970398E+01  0.37583970398E+01  0.00000000000E+00 0. -1.
       -4   -1    0    0    0  501  0.00000000000E+00  0.00000000000E+00 -0.45154767042E+03  0.45154767042E+03  0.00000000000E+00 0.  1.
      -24    2    1    2    0    0  0.00000000000E+00  0.00000000000E+00 -0.44778927338E+03  0.45530606746E+03  0.82391636174E+02 0.  0.
       11    1    3    3    0    0  0.17313942739E+02  0.22448561917E+01 -0.17696783902E+02  0.24859367510E+02  0.00000000000E+00 0. -1.
      -12    1    3    3    0    0 -0.17313942739E+02 -0.22448561917E+01 -0.43009248948E+03  0.43044669995E+03  0.00000000000E+00 0.  1.
</event>
<event>
 5   1  0.6181100E+00  0.7970575E+02  0.7957747E-01  0.1328358E+00
        3   -1    0    0  501    0  0.00000000000E+00  0.00000000000E+00  0.80382776168E+02  0.80382776168E+02  0.00000000000E+00 0. -1.
       -4   -1    0    0    0  501  0.00000000000E+00  0.00000000000E+00 -0.19758604557E+02  0.19758604557E+02  0.00000000000E+00 0.  1.
      -24    2    1    2    0    0  0.00000000000E+00  0.00000000000E+00  0.60624171610E+02  0.10014138073E+03  0.79705746030E+02 0.  0.
       11    1    3    3    0    0  0.21422167828E+02  0.31294923219E+02  0.45698100070E+02  0.59385165183E+02  0.00000000000E+00 0. -1.
      -12    1    3    3    0    0 -0.21422167828E+02 -0.31294923219E+02  0.14926071540E+02  0.40756215543E+02  0.00000000000E+00 0.  1.
</event>
<event>
 5   1  0.6181100E+00  0.8056036E+02  0.7957747E-01  0.1326065E+00
        3   -1    0    0  501    0  0.00000000000E+00  0.00000000000E+00  0.11137876126E+03  0.11137876126E+03  0.00000000000E+00 0. -1.
       -4   -1    0    0    0  501  0.00000000000E+00  0.00000000000E+00 -0.14567344604E+02  0.14567344604E+02  0.00000000000E+00 0.  1.
      -24    2    1    2    0    0  0.00000000000E+00  0.00000000000E+00  0.96811416655E+02  0.12594610586E+03  0.80560357419E+02 0.  0.
       11    1    3    3    0    0  0.72719515376E+01 -0.38389679233E+02  0.33100264446E+02  0.51208165923E+02  0.00000000000E+00 0. -1.
      -12    1    3    3    0    0 -0.72719515376E+01  0.38389679233E+02  0.63711152209E+02  0.74737939940E+02  0.00000000000E+00 0.  1.
</event>
<event>
 5   1  0.6181100E+00  0.5992940E+02  0.7957747E-01  0.1392733E+00
       -2   -1    0    0    0  501  0.00000000000E+00  0.00000000000E+00  0.92172526398E+02  0.92172526398E+02  0.00000000000E+00 0.  1.
        1   -1    0    0  501    0  0.00000000000E+00  0.00000000000E+00 -0.97413330232E+01  0.97413330232E+01  0.00000000000E+00 0. -1.
      -24    2    1    2    0    0  0.00000000000E+00  0.00000000000E+00  0.82431193374E+02  0.10191385942E+03  0.59929400972E+02 0.  0.
       11    1    3    3    0    0 -0.26785015641E+02  0.11919717929E+02  0.30682171594E+02  0.42437158153E+02  0.00000000000E+00 0. -1.
      -12    1    3    3    0    0  0.26785015641E+02 -0.11919717929E+02  0.51749021781E+02  0.59476701268E+02  0.00000000000E+00 0.  1.
</event>
<event>
 5   1  0.6181100E+00  0.7971967E+02  0.7957747E-01  0.1328320E+00
        3   -1    0    0  501    0  0.00000000000E+00  0.00000000000E+00  0.33321518920E+02  0.33321518920E+02  0.00000000000E+00 0. -1.
       -4   -1    0    0    0  501  0.00000000000E+00  0.00000000000E+00 -0.47681096086E+02  0.47681096086E+02  0.00000000000E+00 0.  1.
      -24    2    1    2    0    0  0.00000000000E+00  0.00000000000E+00 -0.14359577166E+02  0.81002615006E+02  0.79719672487E+02 0.  0.
       11    1    3    3    0    0 -0.14809390158E+02 -0.23075748163E+02  0.22216725651E+02  0.35290099019E+02  0.00000000000E+00 0. -1.
      -12    1    3    3    0    0  0.14809390158E+02  0.23075748163E+02 -0.36576302817E+02  0.45712515987E+02  0.00000000000E+00 0.  1.
</event>
<event>
 5   1  0.6181100E+00  0.8105129E+02  0.7957747E-01  0.1324763E+00
        3   -1    0    0  501    0  0.00000000000E+00  0.00000000000E+00  0.29104790175E+02  0.29104790175E+02  0.00000000000E+00 0. -1.
       -4   -1    0    0    0  501  0.00000000000E+00  0.00000000000E+00 -0.56428093725E+02  0.56428093725E+02  0.00000000000E+00 0.  1.
      -24    2    1    2    0    0  0.00000000000E+00  0.00000000000E+00 -0.27323303550E+02  0.85532883900E+02  0.81051288154E+02 0.  0.
       11    1    3    3    0    0  0.59148982307E+01 -0.25846960095E+02  0.18680574638E+02  0.32434784353E+02  0.00000000000E+00 0. -1.
      -12    1    3    3    0    0 -0.59148982307E+01  0.25846960095E+02 -0.46003878188E+02  0.53098099547E+02  0.00000000000E+00 0.  1.
</event>
<event>
 5   1  0.6181100E+00  0.8070239E+02  0.7957747E-01  0.1325688E+00
       -4   -1    0    0    0  501  0.00000000000E+00  0.00000000000E+00  0.76693201921E+01  0.76693201921E+01  0.00000000000E+00 0.  1.
        3   -1    0    0  501    0  0.00000000000E+00  0.00000000000E+00 -0.21230288032E+03  0.21230288032E+03  0.00000000000E+00 0. -1.
      -24    2    1    2    0    0  0.00000000000E+00  0.00000000000E+00 -0.20463356012E+03  0.21997220051E+03  0.80702385761E+02 0.  0.
       11    1    3    3    0    0  0.15210466566E+02 -0.35734627478E+02 -0.72470833753E+02  0.82221308911E+02  0.00000000000E+00 0. -1.
      -12    1    3    3    0    0 -0.15210466566E+02  0.35734627478E+02 -0.13216272637E+03  0.13775089160E+03  0.00000000000E+00 0.  1.
</event>
<event>
 5   1  0.6181100E+00  0.7779152E+02  0.7957747E-01  0.1333612E+00
       -2   -1    0    0    0  501  0.00000000000E+00  0.00000000000E+00  0.15824358555E+03  0.15824358555E+03  0.00000000000E+00 0.  1.
        1   -1    0    0  501    0  0.00000000000E+00  0.00000000000E+00 -0.95604519848E+01  0.95604519848E+01  0.00000000000E+00 0. -1.
      -24    2    1    2    0    0  0.00000000000E+00  0.00000000000E+00  0.14868313357E+03  0.16780403754E+03  0.77791521430E+02 0.  0.
       11    1    3    3    0    0  0.37273111212E+02  0.42555807805E+01  0.52186842610E+02  0.64271777079E+02  0.00000000000E+00 0. -1.
      -12    1    3    3    0    0 -0.37273111212E+02 -0.42555807805E+01  0.96496290959E+02  0.10353226046E+03  0.00000000000E+00 0.  1.
</event>
<event>
 5   1  0.6181100E+00  0.8676486E+02  0.7957747E-01  0.1310335E+00
       -2   -1    0    0    0  501  0.00000000000E+00  0.00000000000E+00  0.77403167726E+01  0.77403167726E+01  0.00000000000E+00 0.  1.
        1   -1    0    0  501    0  0.00000000000E+00  0.00000000000E+00 -0.24314706174E+03  0.24314706174E+03  0.00000000000E+00 0. -1.
      -24    2    1    2    0    0  0.00000000000E+00  0.00000000000E+00 -0.23540674497E+03  0.25088737851E+03  0.86764861095E+02 0.  0.
       11    1    3    3    0    0 -0.18530526271E+02  0.28313822132E+02 -0.19620225641E+03  0.19909891599E+03  0.00000000000E+00 0. -1.
      -12    1    3    3    0    0  0.18530526271E+02 -0.28313822132E+02 -0.39204488561E+02  0.51788462527E+02  0.00000000000E+00 0.  1.
</event>
<event>
 5   1  0.6181100E+00  0.7942314E+02  0.7957747E-01  0.1329123E+00
       -2   -1    0    0    0  501  0.00000000000E+00  0.00000000000E+00  0.13804520267E+03  0.13804520267E+03  0.00000000000E+00 0.  1.
        1   -1    0    0  501    0  0.00000000000E+00  0.00000000000E+00 -0.11423858060E+02  0.11423858060E+02  0.00000000000E+00 0. -1.
      -24    2    1    2    0    0  0.00000000000E+00  0.00000000000E+00  0.12662134461E+03  0.14946906073E+03  0.79423140235E+02 0.  0.
       11    1    3    3    0    0  0.12967732179E+02  0.91491000979E+01 -0.51963744613E+01  0.16699413703E+02  0.00000000000E+00 0. -1.
      -12    1    3    3    0    0 -0.12967732179E+02 -0.91491000979E+01  0.13181771908E+03  0.13276964703E+03  0.00000000000E+00 0.  1.
</event>
<event>
 5   1  0.6181100E+00  0.8018469E+02  0.7957747E-01  0.1327069E+00
        1   -1    0    0  501    0  0.00000000000E+00  0.00000000000E+00  0.15366329800E+02  0.15366329800E+02  0.00000000000E+00 0. -1.
       -2   -1    0    0    0  501  0.00000000000E+00  0.00000000000E+00 -0.10460507987E+03  0.10460507987E+03  0.00000000000E+00 0.  1.
      -24    2    1    2    0    0  0.00000000000E+00  0.00000000000E+00 -0.89238750072E+02  0.11997140967E+03  0.80184690710E+02 0.  0.
       11    1    3    3    0    0  0.26700305382E+00  0.31645984297E+02 -0.77919626629E+01  0.32592242864E+02  0.00000000000E+00 0. -1.
      -12    1    3    3    0    0 -0.26700305382E+00 -0.31645984297E+02 -0.81446787409E+02  0.87379166808E+02  0.00000000000E+00 0.  1.
</event>
<event>
 6   2  0.6181100E+00  0.9383701E+02  0.7957747E-01  0.1294122E+00
       21   -1    0    0  501  502  0.00000000000E+00  0.00000000000E+00  0.35063370317E+03  0.35063370317E+03  0.00000000000E+00 0. -1.
        1   -1    0    0  502    0  0.00000000000E+00  0.00000000000E+00 -0.21526394220E+02  0.21526394220E+02  0.00000000000E+00 0. -1.
      -24    2    1    2    0    0 -0.43284057345E+02 -0.12748711492E+02  0.94215193170E+02  0.13297325553E+03  0.82276028077E+02 0.  0.
       11    1    3    3    0    0 -0.14697352343E+02 -0.13940698764E+02 -0.11610059075E+02  0.23348420068E+02  0.00000000000E+00 0. -1.
      -12    1    3    3    0    0 -0.28586705001E+02  0.11919872720E+01  0.10582525225E+03  0.10962483546E+03  0.00000000000E+00 0.  1.
        2    1    1    2  501    0  0.43284057345E+02  0.12748711492E+02  0.23489211578E+03  0.23918684186E+03  0.00000000000E+00 0. -1.
</event>
<event>
 6   2  0.6181100E+00  0.1512877E+03  0.7957747E-01  0.1203364E+00
       -2   -1    0    0    0  501  0.00000000000E+00  0.00000000000E+00  0.21986960546E+02  0.21986960546E+02  0.00000000000E+00 0.  1.
       21   -1    0    0  501  502  0.00000000000E+00  0.00000000000E+00 -0.19462216686E+04  0.19462216686E+04  0.00000000000E+00 0.  1.
      -24    2    1    2    0    0  0.12825097236E+03  0.96659037658E+01 -0.27418417255E+03  0.31315318858E+03  0.79663149803E+02 0.  0.
       11    1    3    3    0    0  0.11571554047E+01  0.14607164981E+02 -0.77876595691E+02  0.79243122312E+02  0.00000000000E+00 0. -1.
      -12    1    3    3    0    0  0.12709381696E+03 -0.49412612148E+01 -0.19630757686E+03  0.23391006627E+03  0.00000000000E+00 0.  1.
       -1    1    1    2    0  502 -0.12825097236E+03 -0.96659037658E+01 -0.16500505355E+04  0.16550554406E+04  0.00000000000E+00 0.  1.
</event>
<event>
 5   1  0.6181100E+00  0.7930244E+02  0.7957747E-01  0.1329451E+00
       -2   -1    0    0    0  501  0.00000000000E+00  0.00000000000E+00  0.96525488194E+02  0.96525488194E+02  0.00000000000E+00 0.  1.
        1   -1    0    0  501    0  0.00000000000E+00  0.00000000000E+00 -0.16288126260E+02  0.16288126260E+02  0.00000000000E+00 0. -1.
      -24    2    1    2    0    0  0.00000000000E+00  0.00000000000E+00  0.80237361934E+02  0.11281361445E+03  0.79302442309E+02 0.  0.
       11    1    3    3    0    0 -0.26046300238E+02 -0.36450757766E+01 -0.20942303018E+01  0.26383368513E+02  0.00000000000E+00 0. -1.
      -12    1    3    3    0    0  0.26046300238E+02  0.36450757766E+01  0.82331592236E+02  0.86430245942E+02  0.00000000000E+00 0.  1.
</event>
<event>
 5   1  0.6181100E+00  0.8143222E+02  0.7957747E-01  0.1323760E+00
        3   -1    0    0  501    0  0.00000000000E+00  0.00000000000E+00  0.13346262425E+02  0.13346262425E+02  0.00000000000E+00 0. -1.
       -4   -1    0    0    0  501  0.00000000000E+00  0.00000000000E+00 -0.12421468492E+03  0.12421468492E+03  0.00000000000E+00 0.  1.
      -24    2    1    2    0    0  0.00000000000E+00  0.00000000000E+00 -0.11086842250E+03  0.13756094735E+03  0.81432224139E+02 0.  0.
       11    1    3    3    0    0  0.26784710848E+02 -0.87813701652E+01 -0.58010622925E+01  0.28778212608E+02  0.00000000000E+00 0. -1.
      -12    1    3    3    0    0 -0.26784710848E+02  0.87813701652E+01 -0.10506736020E+03  0.10878273474E+03  0.00000000000E+00 0.  1.
</event>
<event>
 6   2  0.6181100E+00  0.9262380E+02  0.7957747E-01  0.1296786E+00
       21   -1    0    0  501  502  0.00000000000E+00  0.00000000000E+00  0.30774678263E+03  0.30774678263E+03  0.00000000000E+00 0.  1.
        1   -1    0    0  502    0  0.00000000000E+00  0.00000000000E+00 -0.13635220442E+02  0.13635220442E+02  0.00000000000E+00 0. -1.
      -24    2    1    2    0    0  0.93532346431E-01 -0.34482339172E+02  0.18400882975E+03  0.20600586969E+03  0.85965856356E+02 0.  0.
       11    1    3    3    0    0  0.91032033910E+01 -0.40424372367E+02  0.28893833065E+02  0.50515856742E+02  0.00000000000E+00 0. -1.
      -12    1    3    3    0    0 -0.90096710446E+01  0.59420331952E+01  0.15511499668E+03  0.15549001295E+03  0.00000000000E+00 0.  1.
        2    1    1    2  501    0 -0.93532346431E-01  0.34482339172E+02  0.11010273245E+03  0.11537613339E+03  0.00000000000E+00 0. -1.
</event>
<event>
 6   2  0.6181100E+00  0.8406633E+02  0.7957747E-01  0.1316988E+00
       21   -1    0    0  501  502  0.00000000000E+00  0.00000000000E+00  0.11081957169E+03  0.11081957169E+03  0.00000000000E+00 0. -1.
       -4   -1    0    0    0  501  0.00000000000E+00  0.00000000000E+00 -0.50332084111E+02  0.50332084111E+02  0.00000000000E+00 0.  1.
      -24    2    1    2    0    0  0.22853304878E+02 -0.74172782285E+01 -0.11878359114E+02  0.84901374963E+02  0.80559657988E+02 0.  0.
       11    1    3    3    0    0 -0.19040175016E+02 -0.21422550084E+02  0.15845386438E+02  0.32749506685E+02  0.00000000000E+00 0. -1.
      -12    1    3    3    0    0  0.41893479894E+02  0.14005271856E+02 -0.27723745553E+02  0.52151868277E+02  0.00000000000E+00 0.  1.
       -3    1    1    2    0  502 -0.22853304878E+02  0.74172782285E+01  0.72365846690E+02  0.76250280834E+02  0.00000000000E+00 0.  1.
</event>
<event>
 5   1  0.6181100E+00  0.7513372E+02  0.7957747E-01  0.1341199E+00
       -4   -1    0    0    0  501  0.00000000000E+00  0.00000000000E+00  0.26185937924E+03  0.26185937924E+03  0.00000000000E+00 0.  1.
        3   -1    0    0  501    0  0.00000000000E+00  0.00000000000E+00 -0.53894154871E+01  0.53894154871E+01  0.00000000000E+00 0. -1.
      -24    2    1    2    0    0  0.00000000000E+00  0.00000000000E+00  0.25646996375E+03  0.26724879473E+03  0.75133720630E+02 0.  0.
       11    1    3    3    0    0 -0.80691107800E+01  0.17081515133E+02  0.12735643042E+02  0.22783443807E+02  0.00000000000E+00 0. -1.
      -12    1    3    3    0    0  0.80691107800E+01 -0.17081515133E+02  0.24373432071E+03  0.24446535092E+03  0.00000000000E+00 0.  1.
</event>
<event>
 5   1  0.6181100E+00  0.7966540E+02  0.7957747E-01  0.1328467E+00
        1   -1    0    0  501    0  0.00000000000E+00  0.00000000000E+00  0.21616370610E+02  0.21616370610E+02  0.00000000000E+00 0. -1.
       -2   -1    0    0    0  501  0.00000000000E+00  0.00000000000E+00 -0.73400111281E+02  0.73400111281E+02  0.00000000000E+00 0.  1.
      -24    2    1    2    0    0  0.00000000000E+00  0.00000000000E+00 -0.51783740670E+02  0.95016481891E+02  0.79665400476E+02 0.  0.
       11    1    3    3    0    0  0.19464635059E+02  0.30702944918E+02 -0.64725055690E+01  0.36924736599E+02  0.00000000000E+00 0. -1.
      -12    1    3    3    0    0 -0.19464635059E+02 -0.30702944918E+02 -0.45311235101E+02  0.58091745291E+02  0.00000000000E+00 0.  1.
</event>
<event>
 4   3  0.6181100E+00  0.2255080E+03  0.7957747E-01  0.1136738E+00
       21   -1    0    0  501  502  0.00000000000E+00  0.00000000000E+00  0.68182303284E+03  0.68182303284E+03  0.00000000000E+00 0.  1.
       21   -1    0    0  502  503  0.00000000000E+00  0.00000000000E+00 -0.10897588927E+03  0.10897588927E+03  0.00000000000E+00 0.  1.
        6    1    1    2  501    0 -0.79177573579E+02  0.12106097003E+03  0.50854571942E+03  0.55630261132E+03  0.17300000000E+03 0.  1.
       -6    1    1    2    0  503  0.79177573579E+02 -0.12106097003E+03  0.64301424149E+02  0.23449631078E+03  0.17300000000E+03 0.  1.
</event>
<event>
 5   1  0.6181100E+00  0.7904238E+02  0.7957747E-01  0.1330160E+00
       -4   -1    0    0    0  501  0.00000000000E+00  0.00000000000E+00  0.68566723439E+01  0.68566723439E+01  0.00000000000E+00 0.  1.
        3   -1    0    0  501    0  0.00000000000E+00  0.00000000000E+00 -0.22779626179E+03  0.22779626179E+03  0.00000000000E+00 0. -1.
      -24    2    1    2    0    0  0.00000000000E+00  0.00000000000E+00 -0.22093958945E+03  0.23465293413E+03  0.79042376691E+02 0.  0.
       11    1    3    3    0    0 -0.37667078243E+02  0.84072258162E+00 -0.14589678891E+03  0.15068307341E+03  0.00000000000E+00 0. -1.
      -12    1    3    3    0    0  0.37667078243E+02 -0.84072258162E+00 -0.75042800539E+02  0.83969860727E+02  0.00000000000E+00 0.  1.
</event>
<event>
 6   2  0.6181100E+00  0.8489070E+02  0.7957747E-01  0.1314926E+00
       -2   -1    0    0    0  501  0.00000000000E+00  0.00000000000E+00  0.46097427156E+02  0.46097427156E+02  0.00000000000E+00 0.  1.
       21   -1    0    0  501  502  0.00000000000E+00  0.00000000000E+00 -0.12181263020E+03  0.12181263020E+03  0.00000000000E+00 0. -1.
      -24    2    1    2    0    0 -0.11149335138E+02  0.26027728702E+02  0.22932687755E+01  0.84921672560E+02  0.80029251235E+02 0.  0.
       11    1    3    3    0    0 -0.40735911395E+02  0.26709620756E+02 -0.14590521603E+02  0.50849794875E+02  0.00000000000E+00 0. -1.
      -12    1    3    3    0    0  0.29586576257E+02 -0.68189205429E+00  0.16883790379E+02  0.34071877685E+02  0.00000000000E+00 0.  1.
       -1    1    1    2    0  502  0.11149335138E+02 -0.26027728702E+02 -0.78008471824E+02  0.82988384800E+02  0.00000000000E+00 0.  1.
</event>
<event>
 4   3  0.6181100E+00  0.2894052E+03  0.7957747E-01  0.1098719E+00
       21   -1    0    0  503  502  0.00000000000E+00  0.00000000000E+00  0.43890707305E+03  0.43890707305E+03  0.00000000000E+00 0.  1.
       21   -1    0    0  501  503  0.00000000000E+00  0.00000000000E+00 -0.21032362222E+03  0.21032362222E+03  0.00000000000E+00 0. -1.
        6    1    1    2  501    0  0.12254585052E+02 -0.23168120785E+03  0.15458316544E+02  0.28981772974E+03  0.17300000000E+03 0. -1.
       -6    1    1    2    0  502 -0.12254585052E+02  0.23168120785E+03  0.21312513429E+03  0.35941296553E+03  0.17300000000E+03 0.  1.
</event>
<event>
 6   2  0.6181100E+00  0.8148295E+02  0.7957747E-01  0.1323627E+00
       21   -1    0    0  501  502  0.00000000000E+00  0.00000000000E+00  0.32445898353E+02  0.32445898353E+02  0.00000000000E+00 0.  1.
       -4   -1    0    0    0  501  0.00000000000E+00  0.00000000000E+00 -0.82417723376E+02  0.82417723376E+02  0.00000000000E+00 0.  1.
      -24    2    1    2    0    0 -0.52326066468E+01  0.19656524156E+02 -0.47644143094E+02  0.94389803879E+02  0.78903178586E+02 0.  0.
       11    1    3    3    0    0  0.22715204029E+02 -0.21610641331E+02 -0.22309329082E+02  0.38479949024E+02  0.00000000000E+00 0. -1.
      -12    1    3    3    0    0 -0.27947810676E+02  0.41267165487E+02 -0.25334814012E+02  0.55909854855E+02  0.00000000000E+00 0.  1.
       -3    1    1    2    0  502  0.52326066468E+01 -0.19656524156E+02 -0.23276819292E+01  0.20473817851E+02  0.00000000000E+00 0.  1.
</event>
<event>
 5   1  0.6181100E+00  0.7750207E+02  0.7957747E-01  0.1334422E+00
        1   -1    0    0  501    0  0.00000000000E+00  0.00000000000E+00  0.18884857945E+02  0.18884857945E+02  0.00000000000E+00 0. -1.
       -2   -1    0    0    0  501  0.00000000000E+00  0.00000000000E+00 -0.79515708191E+02  0.79515708191E+02  0.00000000000E+00 0.  1.
      -24    2    1    2    0    0  0.00000000000E+00  0.00000000000E+00 -0.60630850246E+02  0.98400566135E+02  0.77502073612E+02 0.  0.
       11    1    3    3    0    0  0.29582783792E+02 -0.14181950410E+02 -0.41293888444E+01  0.33065399840E+02  0.00000000000E+00 0. -1.
      -12    1    3    3    0    0 -0.29582783792E+02  0.14181950410E+02 -0.56501461402E+02  0.65335166296E+02  0.00000000000E+00 0.  1.
</event>
<event>
 6   2  0.6181100E+00  0.8688387E+02  0.7957747E-01  0.1310048E+00
       21   -1    0    0  501  502  0.00000000000E+00  0.00000000000E+00  0.55556982213E+01  0.55556982213E+01  0.00000000000E+00 0.  1.
       -4   -1    0    0    0  501  0.00000000000E+00  0.00000000000E+00 -0.69111747312E+03  0.69111747312E+03  0.00000000000E+00 0.  1.
      -24    2    1    2    0    0  0.85652606891E+01 -0.33977657933E+02 -0.42717096828E+03  0.43591724355E+03  0.79504478869E+02 0.  0.
       11    1    3    3    0    0 -0.24475832499E+02  0.14233828716E+02 -0.15048991821E+03  0.15313028355E+03  0.00000000000E+00 0. -1.
      -12    1    3    3    0    0  0.33041093188E+02 -0.48211486649E+02 -0.27668105006E+03  0.28278696000E+03  0.00000000000E+00 0.  1.
       -3    1    1    2    0  502 -0.85652606891E+01  0.33977657933E+02 -0.25839080662E+03  0.26075592779E+03  0.00000000000E+00 0.  1.
</event>
<event>
 5   1  0.6181100E+00  0.8125137E+02  0.7957747E-01  0.1324235E+00
       -4   -1    0    0    0  501  0.00000000000E+00  0.00000000000E+00  0.76393949459E+02  0.76393949459E+02  0.00000000000E+00 0.  1.
        3   -1    0    0  501    0  0.00000000000E+00  0.00000000000E+00 -0.21604411645E+02  0.21604411645E+02  0.00000000000E+00 0. -1.
      -24    2    1    2    0    0  0.00000000000E+00  0.00000000000E+00  0.54789537814E+02  0.97998361105E+02  0.81251371221E+02 0.  0.
       11    1    3    3    0    0 -0.30787189520E+02 -0.17835738018E+02  0.37450504799E+01  0.35776947778E+02  0.00000000000E+00 0. -1.
      -12    1    3    3    0    0  0.30787189520E+02  0.17835738018E+02  0.51044487334E+02  0.62221413327E+02  0.00000000000E+00 0.  1.
</event>
<event>
 5   1  0.6181100E+00  0.8726569E+02  0.7957747E-01  0.1309130E+00
        1   -1    0    0  501    0  0.00000000000E+00  0.00000000000E+00  0.20678000408E+02  0.20678000408E+02  0.00000000000E+00 0. -1.
       -2   -1    0    0    0  501  0.00000000000E+00  0.00000000000E+00 -0.92070083825E+02  0.92070083825E+02  0.00000000000E+00 0.  1.
      -24    2    1    2    0    0  0.00000000000E+00  0.00000000000E+00 -0.71392083417E+02  0.11274808423E+03  0.87265691561E+02 0.  0.
       11    1    3    3    0    0 -0.12068006819E+02 -0.26987044438E+02  0.57669475421E+01  0.30119678617E+02  0.00000000000E+00 0. -1.
      -12    1    3    3    0    0  0.12068006819E+02  0.26987044438E+02 -0.77159030959E+02  0.82628405616E+02  0.00000000000E+00 0.  1.
</event>
<event>
 5   1  0.6181100E+00  0.7918403E+02  0.7957747E-01  0.1329773E+00
        1   -1    0    0  501    0  0.00000000000E+00  0.00000000000E+00  0.11902077426E+02  0.11902077426E+02  0.00000000000E+00 0. -1.
       -2   -1    0    0    0  501  0.00000000000E+00  0.00000000000E+00 -0.13170203538E+03  0.13170203538E+03  0.00000000000E+00 0.  1.
      -24    2    1    2    0    0  0.00000000000E+00  0.00000000000E+00 -0.11979995795E+03  0.14360411281E+03  0.79184034307E+02 0.  0.
       11    1    3    3    0    0  0.10673231906E+02 -0.37177188809E+02 -0.75231341002E+02  0.84592055868E+02  0.00000000000E+00 0. -1.
      -12    1    3    3    0    0 -0.10673231906E+02  0.37177188809E+02 -0.44568616951E+02  0.59012056937E+02  0.00000000000E+00 0.  1.
</event>
<event>
 5   1  0.6181100E+00  0.7996907E+02  0.7957747E-01  0.1327648E+00
       -2   -1    0    0    0  501  0.00000000000E+00  0.00000000000E+00  0.19030289286E+02  0.19030289286E+02  0.00000000000E+00 0.  1.
        1   -1    0    0  501    0  0.00000000000E+00  0.00000000000E+00 -0.84011497887E+02  0.84011497887E+02  0.00000000000E+00 0. -1.
      -24    2    1    2    0    0  0.00000000000E+00  0.00000000000E+00 -0.64981208601E+02  0.10304178717E+03  0.79969071724E+02 0.  0.
       11    1    3    3    0    0  0.18992523398E+02 -0.48760129335E+01 -0.77390905825E+02  0.79836356076E+02  0.00000000000E+00 0. -1.
      -12    1    3    3    0    0 -0.18992523398E+02  0.48760129335E+01  0.12409697224E+02  0.23205431096E+02  0.00000000000E+00 0.  1.
</event>
<event>
 4   3  0.6181100E+00  0.1916029E+03  0.7957747E-01  0.1163021E+00
       21   -1    0    0  503  502  0.00000000000E+00  0.00000000000E+00  0.80641206806E+03  0.80641206806E+03  0.00000000000E+00 0.  1.
       21   -1    0    0  501  503  0.00000000000E+00  0.00000000000E+00 -0.11241816265E+03  0.11241816265E+03  0.00000000000E+00 0.  1.
        6    1    1    2  501    0  0.54839230715E+01 -0.82174258208E+02 -0.73908925584E+01  0.19174542346E+03  0.17300000000E+03 0.  1.
       -6    1    1    2    0  502 -0.54839230715E+01  0.82174258208E+02  0.70138479797E+03  0.72708480726E+03  0.17300000000E+03 0.  1.
</event>
<event>
 4   3  0.6181100E+00  0.2316438E+03  0.7957747E-01  0.1132521E+00
       21   -1    0    0  501  502  0.00000000000E+00  0.00000000000E+00  0.43684308725E+03  0.43684308725E+03  0.00000000000E+00 0.  1.
       21   -1    0    0  502  503  0.00000000000E+00  0.00000000000E+00 -0.13986272916E+03  0.13986272916E+03  0.00000000000E+00 0.  1.
        6    1    1    2  501    0 -0.15055909169E+03  0.32585427509E+02  0.24910783456E+03  0.34016696403E+03  0.17300000000E+03 0.  1.
       -6    1    1    2    0  503  0.15055909169E+03 -0.32585427509E+02  0.47872523530E+02  0.23653885238E+03  0.17300000000E+03 0.  1.
</event>
<event>
 5   1  0.6181100E+00  0.8023289E+02  0.7957747E-01  0.1326940E+00
        3   -1    0    0  501    0  0.00000000000E+00  0.00000000000E+00  0.59293945053E+02  0.59293945053E+02  0.00000000000E+00 0. -1.
       -4   -1    0    0    0  501  0.00000000000E+00  0.00000000000E+00 -0.27141541858E+02  0.27141541858E+02  0.00000000000E+00 0.  1.
      -24    2    1    2    0    0  0.00000000000E+00  0.00000000000E+00  0.32152403196E+02  0.86435486911E+02  0.80232888308E+02 0.  0.
       11    1    3    3    0    0 -0.10673237332E+01 -0.11469137113E+02  0.57474097234E+02  0.58616995308E+02  0.00000000000E+00 0. -1.
      -12    1    3    3    0    0  0.10673237332E+01  0.11469137113E+02 -0.25321694038E+02  0.27818491603E+02  0.00000000000E+00 0.  1.
</event>
<event>
 6   2  0.6181100E+00  0.8853419E+02  0.7957747E-01  0.1306119E+00
       -4   -1    0    0    0  501  0.00000000000E+00  0.00000000000E+00  0.13141824300E+03  0.13141824300E+03  0.00000000000E+00 0.  1.
       21   -1    0    0  501  502  0.00000000000E+00  0.00000000000E+00 -0.33561189301E+02  0.33561189301E+02  0.00000000000E+00 0.  1.
      -24    2    1    2    0    0  0.32817880174E+02 -0.55891122397E+01  0.97484077569E+02  0.13168693245E+03  0.82036890269E+02 0.  0.
       11    1    3    3    0    0  0.24264428648E+02  0.97369106182E+01 -0.59174093223E+01  0.26806448088E+02  0.00000000000E+00 0. -1.
      -12    1    3    3    0    0  0.85534515264E+01 -0.15326022858E+02  0.10340148689E+03  0.10488048437E+03  0.00000000000E+00 0.  1.
       -3    1    1    2    0  502 -0.32817880174E+02  0.55891122397E+01  0.37297612997E+00  0.33292499846E+02  0.00000000000E+00 0.  1.
</event>
<event>
 5   1  0.6181100E+00  0.8183077E+02  0.7957747E-01  0.1322717E+00
       -4   -1    0    0    0  501  0.00000000000E+00  0.00000000000E+00  0.14360585083E+03  0.14360585083E+03  0.00000000000E+00 0.  1.
        3   -1    0    0  501    0  0.00000000000E+00  0.00000000000E+00 -0.11657386139E+02  0.11657386139E+02  0.00000000000E+00 0. -1.
      -24    2    1    2    0    0  0.00000000000E+00  0.00000000000E+00  0.13194846469E+03  0.15526323697E+03  0.81830773061E+02 0.  0.
       11    1    3    3    0    0  0.21654782640E+02  0.34101237285E+02  0.78306385699E+02  0.88111940376E+02  0.00000000000E+00 0. -1.
      -12    1    3    3    0    0 -0.21654782640E+02 -0.34101237285E+02  0.53642078996E+02  0.67151296596E+02  0.00000000000E+00 0.  1.
</event>
<event>
 5   1  0.6181100E+00  0.8079535E+02  0.7957747E-01  0.1325441E+00
       -2   -1    0    0    0  501  0.00000000000E+00  0.00000000000E+00  0.11012970480E+02  0.11012970480E+02  0.00000000000E+00 0.  1.
        1   -1    0    0  501    0  0.00000000000E+00  0.00000000000E+00 -0.14818637143E+03  0.14818637143E+03  0.00000000000E+00 0. -1.
      -24    2    1    2    0    0  0.00000000000E+00  0.00000000000E+00 -0.13717340095E+03  0.15919934191E+03  0.80795349720E+02 0.  0.
       11    1    3    3    0    0 -0.23368622782E+02  0.30036437753E+02 -0.41881242090E+02  0.56589032176E+02  0.00000000000E+00 0. -1.
      -12    1    3    3    0    0  0.23368622782E+02 -0.30036437753E+02 -0.95292158857E+02  0.10261030973E+03  0.00000000000E+00 0.  1.
</event>
<event>
 6   2  0.6181100E+00  0.9959965E+02  0.7957747E-01  0.1282056E+00
       21   -1    0    0  501  502  0.00000000000E+00  0.00000000000E+00  0.51807086911E+02  0.51807086911E+02  0.00000000000E+00 0. -1.
       -4   -1    0    0    0  501  0.00000000000E+00  0.00000000000E+00 -0.17375695604E+03  0.17375695604E+03  0.00000000000E+00 0.  1.
      -24    2    1    2    0    0  0.24156718159E+02  0.51566239174E+02 -0.13439243355E+03  0.16727646739E+03  0.81715765263E+02 0.  0.
       11    1    3    3    0    0  0.15342810004E+02 -0.10190977749E+02  0.74610221624E+00  0.18434058555E+02  0.00000000000E+00 0. -1.
      -12    1    3    3    0    0  0.88139081554E+01  0.61757216923E+02 -0.13513853577E+03  0.14884240884E+03  0.00000000000E+00 0.  1.
       -3    1    1    2    0  502 -0.24156718159E+02 -0.51566239174E+02  0.12442564424E+02  0.58287575557E+02  0.00000000000E+00 0.  1.
</event>
<event>
 4   3  0.6181100E+00  0.1889051E+03  0.7957747E-01  0.1165366E+00
       21   -1    0    0  501  502  0.00000000000E+00  0.00000000000E+00  0.11044751116E+03  0.11044751116E+03  0.00000000000E+00 0.  1.
       21   -1    0    0  502  503  0.00000000000E+00  0.00000000000E+00 -0.32473254639E+03  0.32473254639E+03  0.00000000000E+00 0.  1.
        6    1    1    2  501    0 -0.52530581603E+02 -0.54741898078E+02 -0.12258987679E+03  0.22519639274E+03  0.17300000000E+03 0.  1.
       -6    1    1    2    0  503  0.52530581603E+02  0.54741898078E+02 -0.91695158430E+02  0.20998366481E+03  0.17300000000E+03 0.  1.
</event>
<event>
 5   1  0.6181100E+00  0.7558319E+02  0.7957747E-01  0.1339891E+00
       -2   -1    0    0    0  501  0.00000000000E+00  0.00000000000E+00  0.14494631023E+03  0.14494631023E+03  0.00000000000E+00 0.  1.
        1   -1    0    0  501    0  0.00000000000E+00  0.00000000000E+00 -0.98533356891E+01  0.98533356891E+01  0.00000000000E+00 0. -1.
      -24    2    1    2    0    0  0.00000000000E+00  0.00000000000E+00  0.13509297454E+03  0.15479964591E+03  0.75583189971E+02 0.  0.
       11    1    3    3    0    0 -0.32653911200E+02  0.18994669751E+02  0.69722898404E+02  0.79299167445E+02  0.00000000000E+00 0. -1.
      -12    1    3    3    0    0  0.32653911200E+02 -0.18994669751E+02  0.65370076133E+02  0.75500478470E+02  0.00000000000E+00 0.  1.
</event>
<event>
 4   3  0.6181100E+00  0.1808047E+03  0.7957747E-01  0.1172674E+00
       21   -1    0    0  503  502  0.00000000000E+00  0.00000000000E+00  0.10669742078E+04  0.10669742078E+04  0.00000000000E+00 0.  1.
       21   -1    0    0  501  503  0.00000000000E+00  0.00000000000E+00 -0.14776130670E+03  0.14776130670E+03  0.00000000000E+00 0.  1.
        6    1    1    2  501    0 -0.33098691436E+02 -0.40814483531E+02 -0.81138356168E+02  0.19817612945E+03  0.17300000000E+03 0.  1.
       -6    1    1    2    0  502  0.33098691436E+02  0.40814483531E+02  0.10003512573E+04  0.10165593851E+04  0.17300000000E+03 0.  1.
</event>
<event>
 5   1  0.6181100E+00  0.8021979E+02  0.7957747E-01  0.1326975E+00
        1   -1    0    0  501    0  0.00000000000E+00  0.00000000000E+00  0.94730889965E+02  0.94730889965E+02  0.00000000000E+00 0. -1.
       -2   -1    0    0    0  501  0.00000000000E+00  0.00000000000E+00 -0.16982883303E+02  0.16982883303E+02  0.00000000000E+00 0.  1.
      -24    2    1    2    0    0  0.00000000000E+00  0.00000000000E+00  0.77748006662E+02  0.11171377327E+03  0.80219789317E+02 0.  0.
       11    1    3    3    0    0  0.23635646766E+02 -0.80565450760E+01  0.82585819538E+02  0.86278440560E+02  0.00000000000E+00 0. -1.
      -12    1    3    3    0    0 -0.23635646766E+02  0.80565450760E+01 -0.48378128761E+01  0.25435332709E+02  0.00000000000E+00 0.  1.
</event>
<event>
 5   1  0.6181100E+00  0.8233742E+02  0.7957747E-01  0.1321400E+00
       -4   -1    0    0    0  501  0.00000000000E+00  0.00000000000E+00  0.99942779394E+02  0.99942779394E+02  0.00000000000E+00 0.  1.
        3   -1    0    0  501    0  0.00000000000E+00  0.00000000000E+00 -0.16958329490E+02  0.16958329490E+02  0.00000000000E+00 0. -1.
      -24    2    1    2    0    0  0.00000000000E+00  0.00000000000E+00  0.82984449904E+02  0.11690110888E+03  0.82337417572E+02 0.  0.
       11    1    3    3    0    0  0.19996803501E+02  0.60986059927E+01 -0.88609363557E+01  0.22706416239E+02  0.00000000000E+00 0. -1.
      -12    1    3    3    0    0 -0.19996803501E+02 -0.60986059927E+01  0.91845386260E+02  0.94194692645E+02  0.00000000000E+00 0.  1.
</event>
<event>
 6   2  0.6181100E+00  0.8344994E+02  0.7957747E-01  0.1318547E+00
        1   -1    0    0  502    0  0.00000000000E+00  0.00000000000E+00  0.10120511278E+04  0.10120511278E+04  0.00000000000E+00 0. -1.
       -2   -1    0    0    0  501  0.00000000000E+00  0.00000000000E+00 -0.13427382809E+02  0.13427382809E+02  0.00000000000E+00 0.  1.
      -24    2    1    2    0    0  0.10568749188E+02 -0.22127792477E+02  0.11807120443E+03  0.14458458149E+03  0.79765620610E+02 0.  0.
       11    1    3    3    0    0  0.33618669338E+02  0.13984920922E+02  0.77284658348E+02  0.85432495908E+02  0.00000000000E+00 0. -1.
      -12    1    3    3    0    0 -0.23049920149E+02 -0.36112713399E+02  0.40786546082E+02  0.59152085586E+02  0.00000000000E+00 0.  1.
       21    1    1    2  502  501 -0.10568749188E+02  0.22127792477E+02  0.88055254060E+03  0.88089392915E+03  0.00000000000E+00 0. -1.
</event>
<event>
 5   1  0.6181100E+00  0.7913895E+02  0.7957747E-01  0.1329896E+00
       -4   -1    0    0    0  501  0.00000000000E+00  0.00000000000E+00  0.26483130264E+02  0.26483130264E+02  0.00000000000E+00 0.  1.
        3   -1    0    0  501    0  0.00000000000E+00  0.00000000000E+00 -0.59122289956E+02  0.59122289956E+02  0.00000000000E+00 0. -1.
      -24    2    1    2    0    0  0.00000000000E+00  0.00000000000E+00 -0.32639159692E+02  0.85605420220E+02  0.79138948854E+02 0.  0.
       11    1    3    3    0    0 -0.20603146049E+02 -0.33554196315E+02 -0.12078835298E+02  0.41185822556E+02  0.00000000000E+00 0. -1.
      -12    1    3    3    0    0  0.20603146049E+02  0.33554196315E+02 -0.20560324394E+02  0.44419597664E+02  0.00000000000E+00 0.  1.
</event>
<event>
 5   1  0.6181100E+00  0.8153920E+02  0.7957747E-01  0.1323479E+00
       -2   -1    0    0    0  501  0.00000000000E+00  0.00000000000E+00  0.25248139062E+03  0.25248139062E+03  0.00000000000E+00 0.  1.
        1   -1    0    0  501    0  0.00000000000E+00  0.00000000000E+00 -0.65832989112E+01  0.65832989112E+01  0.00000000000E+00 0. -1.
      -24    2    1    2    0    0  0.00000000000E+00  0.00000000000E+00  0.24589809171E+03  0.25906468953E+03  0.81539204411E+02 0.  0.
       11    1    3    3    0    0 -0.14265989112E+02  0.29603087216E+02  0.46280916497E+02  0.56760765057E+02  0.00000000000E+00 0. -1.
      -12    1    3    3    0    0  0.14265989112E+02 -0.29603087216E+02  0.19961717521E+03  0.20230392448E+03  0.00000000000E+00 0.  1.
</event>
<event>
 5   1  0.6181100E+00  0.8943810E+02  0.7957747E-01  0.1304008E+00
        3   -1    0    0  501    0  0.00000000000E+00  0.00000000000E+00  0.18088676162E+02  0.18088676162E+02  0.00000000000E+00 0. -1.
       -4   -1    0    0    0  501  0.00000000000E+00  0.00000000000E+00 -0.11055498236E+03  0.11055498236E+03  0.00000000000E+00 0.  1.
      -24    2    1    2    0    0  0.00000000000E+00  0.00000000000E+00 -0.92466306196E+02  0.12864365852E+03  0.89438096446E+02 0.  0.
       11    1    3    3    0    0  0.13586122844E+02  0.21583485951E+02  0.66028968978E+01  0.26344408272E+02  0.00000000000E+00 0. -1.
      -12    1    3    3    0    0 -0.13586122844E+02 -0.21583485951E+02 -0.99069203094E+02  0.10229925025E+03  0.00000000000E+00 0.  1.
</event>
<event>
 5   1  0.6181100E+00  0.7824424E+02  0.7957747E-01  0.1332354E+00
        3   -1    0    0  501    0  0.00000000000E+00  0.00000000000E+00  0.88108302086E+01  0.88108302086E+01  0.00000000000E+00 0. -1.
       -4   -1    0    0    0  501  0.00000000000E+00  0.00000000000E+00 -0.17371126362E+03  0.17371126362E+03  0.00000000000E+00 0.  1.
      -24    2    1    2    0    0  0.00000000000E+00  0.00000000000E+00 -0.16490043341E+03  0.18252209383E+03  0.78244244493E+02 0.  0.
       11    1    3    3    0    0  0.60554623864E+01  0.23086472864E+02 -0.10140092400E+02  0.25932129259E+02  0.00000000000E+00 0. -1.
      -12    1    3    3    0    0 -0.60554623864E+01 -0.23086472864E+02 -0.15476034101E+03  0.15658996457E+03  0.00000000000E+00 0.  1.
</event>
<event>
 5   1  0.6181100E+00  0.7606451E+02  0.7957747E-01  0.1338502E+00
        1   -1    0    0  501    0  0.00000000000E+00  0.00000000000E+00  0.38957510748E+02  0.38957510748E+02  0.00000000000E+00 0. -1.
       -2   -1    0    0    0  501  0.00000000000E+00  0.00000000000E+00 -0.37128972817E+02  0.37128972817E+02  0.00000000000E+00 0.  1.
      -24    2    1    2    0    0  0.00000000000E+00  0.00000000000E+00  0.18285379310E+01  0.76086483565E+02  0.76064508348E+02 0.  0.
       11    1    3    3    0    0  0.12460279315E+02 -0.11725278368E+02  0.34890412956E+02  0.38859768781E+02  0.00000000000E+00 0. -1.
      -12    1    3    3    0    0 -0.12460279315E+02  0.11725278368E+02 -0.33061875025E+02  0.37226714784E+02  0.00000000000E+00 0.  1.
</event>
<event>
 5   1  0.6181100E+00  0.7942771E+02  0.7957747E-01  0.1329111E+00
        1   -1    0    0  501    0  0.00000000000E+00  0.00000000000E+00  0.73312012756E+02  0.73312012756E+02  0.00000000000E+00 0. -1.
       -2   -1    0    0    0  501  0.00000000000E+00  0.00000000000E+00 -0.21513392170E+02  0.21513392170E+02  0.00000000000E+00 0.  1.
      -24    2    1    2    0    0  0.00000000000E+00  0.00000000000E+00  0.51798620586E+02  0.94825404926E+02  0.79427705020E+02 0.  0.
       11    1    3    3    0    0  0.12649773320E+02 -0.36609554905E+02  0.15429113554E+02  0.41693330647E+02  0.00000000000E+00 0. -1.
      -12    1    3    3    0    0 -0.12649773320E+02  0.36609554905E+02  0.36369507032E+02  0.53132074279E+02  0.00000000000E+00 0.  1.
</event>
<event>
 5   1  0.6181100E+00  0.8005512E+02  0.7957747E-01  0.1327417E+00
        1   -1    0    0  501    0  0.00000000000E+00  0.00000000000E+00  0.31021969292E+02  0.31021969292E+02  0.00000000000E+00 0. -1.
       -2   -1    0    0    0  501  0.00000000000E+00  0.00000000000E+00 -0.51647449353E+02  0.51647449353E+02  0.00000000000E+00 0.  1.
      -24    2    1    2    0    0  0.00000000000E+00  0.00000000000E+00 -0.20625480061E+02  0.82669418644E+02  0.80055120706E+02 0.  0.
       11    1    3    3    0    0 -0.12486648091E+01  0.23966475011E+02  0.22768616053E+02  0.33081127024E+02  0.00000000000E+00 0. -1.
      -12    1    3    3    0    0  0.12486648091E+01 -0.23966475011E+02 -0.43394096114E+02  0.49588291620E+02  0.00000000000E+00 0.  1.
</event>
<event>
 5   1  0.6181100E+00  0.8121787E+02  0.7957747E-01  0.1324324E+00
        1   -1    0    0  501    0  0.00000000000E+00  0.00000000000E+00  0.64410063890E+03  0.64410063890E+03  0.00000000000E+00 0. -1.
       -2   -1    0    0    0  501  0.00000000000E+00  0.00000000000E+00 -0.25602916867E+01  0.25602916867E+01  0.00000000000E+00 0.  1.
      -24    2    1    2    0    0  0.00000000000E+00  0.00000000000E+00  0.64154034722E+03  0.64666093059E+03  0.81217867767E+02 0.  0.
       11    1    3    3    0    0  0.31143186389E+02 -0.23748001892E+02  0.23530509259E+03  0.23854213936E+03  0.00000000000E+00 0. -1.
      -12    1    3    3    0    0 -0.31143186389E+02  0.23748001892E+02  0.40623525462E+03  0.40811879123E+03  0.00000000000E+00 0.  1.
</event>
<event>
 5   1  0.6181100E+00  0.8052250E+02  0.7957747E-01  0.1326166E+00
        1   -1    0    0  501    0  0.00000000000E+00  0.00000000000E+00  0.53837782839E+01  0.53837782839E+01  0.00000000000E+00 0. -1.
       -2   -1    0    0    0  501  0.00000000000E+00  0.00000000000E+00 -0.30108378738E+03  0.30108378738E+03  0.00000000000E+00 0.  1.
      -24    2    1    2    0    0  0.00000000000E+00  0.00000000000E+00 -0.29570000910E+03  0.30646756566E+03  0.80522502597E+02 0.  0.
       11    1    3    3    0    0  0.39194534475E+02  0.71650771417E+01 -0.16985192982E+03  0.17446268348E+03  0.00000000000E+00 0. -1.
      -12    1    3    3    0    0 -0.39194534475E+02 -0.71650771417E+01 -0.12584807928E+03  0.13200488218E+03  0.00000000000E+00 0.  1.
</event>
<event>
 5   1  0.6181100E+00  0.9819111E+02  0.7957747E-01  0.1284919E+00
       -4   -1    0    0    0  501  0.00000000000E+00  0.00000000000E+00  0.72007660703E+02  0.72007660703E+02  0.00000000000E+00 0.  1.
        3   -1    0    0  501    0  0.00000000000E+00  0.00000000000E+00 -0.33473850032E+02  0.33473850032E+02  0.00000000000E+00 0. -1.
      -24    2    1    2    0    0  0.00000000000E+00  0.00000000000E+00  0.38533810671E+02  0.10548151074E+03  0.98191112338E+02 0.  0.
       11    1    3    3    0    0 -0.47023210201E+01 -0.48108538885E+02  0.10036485079E+02  0.49368759042E+02  0.00000000000E+00 0. -1.
      -12    1    3    3    0    0  0.47023210201E+01  0.48108538885E+02  0.28497325592E+02  0.56112751693E+02  0.00000000000E+00 0.  1.
</event>
<event>
 5   1  0.6181100E+00  0.8068125E+02  0.7957747E-01  0.1325744E+00
        1   -1    0    0  501    0  0.00000000000E+00  0.00000000000E+00  0.18990527189E+03  0.18990527189E+03  0.00000000000E+00 0. -1.
       -2   -1    0    0    0  501  0.00000000000E+00  0.00000000000E+00 -0.85693564402E+01  0.85693564402E+01  0.00000000000E+00 0.  1.
      -24    2    1    2    0    0  0.00000000000E+00  0.00000000000E+00  0.18133591545E+03  0.19847462833E+03  0.80681248495E+02 0.  0.
       11    1    3    3    0    0 -0.29606412799E+01  0.29419770598E+02  0.15817549598E+03  0.16091543067E+03  0.00000000000E+00 0. -1.
      -12    1    3    3    0    0  0.29606412799E+01 -0.29419770598E+02  0.23160419465E+02  0.37559197656E+02  0.00000000000E+00 0.  1.
</event>
<event>
 5   1  0.6181100E+00  0.8009870E+02  0.7957747E-01  0.1327300E+00
        3   -1    0    0  501    0  0.00000000000E+00  0.00000000000E+00  0.52206810717E+02  0.52206810717E+02  0.00000000000E+00 0. -1.
       -4   -1    0    0    0  501  0.00000000000E+00  0.00000000000E+00 -0.30723009802E+02  0.30723009802E+02  0.00000000000E+00 0.  1.
      -24    2    1    2    0    0  0.00000000000E+00  0.00000000000E+00  0.21483800915E+02  0.82929820520E+02  0.80098698052E+02 0.  0.
       11    1    3    3    0    0  0.33624907310E+02 -0.12389076422E+02  0.29257708161E+02  0.46261615763E+02  0.00000000000E+00 0. -1.
      -12    1    3    3    0    0 -0.33624907310E+02  0.12389076422E+02 -0.77739072453E+01  0.36668204756E+02  0.00000000000E+00 0.  1.
</event>
<event>
 6   2  0.6181100E+00  0.9180080E+02  0.7957747E-01  0.1298620E+00
        3   -1    0    0  502    0  0.00000000000E+00  0.00000000000E+00  0.33802488444E+03  0.33802488444E+03  0.00000000000E+00 0. -1.
       -4   -1    0    0    0  501  0.00000000000E+00  0.00000000000E+00 -0.11329873295E+02  0.11329873295E+02  0.00000000000E+00 0.  1.
      -24    2    1    2    0    0 -0.93462176427E+01 -0.26824656497E+02  0.28034439673E+03  0.29499214708E+03  0.87295315348E+02 0.  0.
       11    1    3    3    0    0 -0.38996186575E+02  0.13768131478E+02  0.11747185965E+03  0.12453875630E+03  0.00000000000E+00 0. -1.
      -12    1    3    3    0    0  0.29649968932E+02 -0.40592787975E+02  0.16287253708E+03  0.17045339078E+03  0.00000000000E+00 0.  1.
       21    1    1    2  502  501  0.93462176427E+01  0.26824656497E+02  0.46350614416E+02  0.54362610655E+02  0.00000000000E+00 0. -1.
</event>
<event>
 5   1  0.6181100E+00  0.8036523E+02  0.7957747E-01  0.1326586E+00
       -4   -1    0    0    0  501  0.00000000000E+00  0.00000000000E+00  0.24611335194E+02  0.24611335194E+02  0.00000000000E+00 0.  1.
        3   -1    0    0  501    0  0.00000000000E+00  0.00000000000E+00 -0.65605645064E+02  0.65605645064E+02  0.00000000000E+00 0. -1.
      -24    2    1    2    0    0  0.00000000000E+00  0.00000000000E+00 -0.40994309870E+02  0.90216980257E+02  0.80365229329E+02 0.  0.
       11    1    3    3    0    0  0.12023677042E+02 -0.12323267385E+02 -0.61255123449E+02  0.63628781832E+02  0.00000000000E+00 0. -1.
      -12    1    3    3    0    0 -0.12023677042E+02  0.12323267385E+02  0.20260813579E+02  0.26588198426E+02  0.00000000000E+00 0.  1.
</event>
<event>
 6   2  0.6181100E+00  0.8530189E+02  0.7957747E-01  0.1313907E+00
        3   -1    0    0  502    0  0.00000000000E+00  0.00000000000E+00  0.10416733696E+03  0.10416733696E+03  0.00000000000E+00 0. -1.
       21   -1    0    0  501  502  0.00000000000E+00  0.00000000000E+00 -0.58648064313E+02  0.58648064313E+02  0.00000000000E+00 0.  1.
      -24    2    1    2    0    0 -0.31275082654E+02  0.23735427741E+02  0.75105421591E+02  0.11365401872E+03  0.75729190502E+02 0.  0.
       11    1    3    3    0    0 -0.14232012525E+02  0.13178999244E+02  0.87805392053E+02  0.89922316892E+02  0.00000000000E+00 0. -1.
      -12    1    3    3    0    0 -0.17043070129E+02  0.10556428496E+02 -0.12699970462E+02  0.23731701830E+02  0.00000000000E+00 0.  1.
        4    1    1    2  501    0  0.31275082654E+02 -0.23735427741E+02 -0.29586148944E+02  0.49161382552E+02  0.00000000000E+00 0. -1.
</event>
<event>
 6   2  0.6181100E+00  0.8357680E+02  0.7957747E-01  0.1318225E+00
       21   -1    0    0  501  502  0.00000000000E+00  0.00000000000E+00  0.26312511678E+02  0.26312511678E+02  0.00000000000E+00 0.  1.
        3   -1    0    0  502    0  0.00000000000E+00  0.00000000000E+00 -0.11435497147E+03  0.11435497147E+03  0.00000000000E+00 0. -1.
      -24    2    1    2    0    0 -0.12342793929E+02 -0.22024575613E+02 -0.74784570863E+02  0.11215085446E+03  0.79672175971E+02 0.  0.
       11    1    3    3    0    0  0.17728783303E+02 -0.15400038943E+02 -0.77746911094E+02  0.81216089179E+02  0.00000000000E+00 0. -1.
      -12    1    3    3    0    0 -0.30071577232E+02 -0.66245366699E+01  0.29623402314E+01  0.30934765281E+02  0.00000000000E+00 0.  1.
        4    1    1    2  501    0  0.12342793929E+02  0.22024575613E+02 -0.13257888930E+02  0.28516628689E+02  0.00000000000E+00 0. -1.
</event>
<event>
 6   2  0.6181100E+00  0.1383115E+03  0.7957747E-01  0.1219420E+00
        1   -1    0    0  502    0  0.00000000000E+00  0.00000000000E+00  0.33172497179E+03  0.33172497179E+03  0.00000000000E+00 0. -1.
       21   -1    0    0  501  502  0.00000000000E+00  0.00000000000E+00 -0.50839566579E+02  0.50839566579E+02  0.00000000000E+00 0. -1.
      -24    2    1    2    0    0 -0.97535485557E+02  0.43429898342E+02  0.21940165140E+03  0.25935910425E+03  0.87924588776E+02 0.  0.
       11    1    3    3    0    0 -0.89466345086E+02  0.67305295435E+02  0.19094962480E+03  0.22135037589E+03  0.00000000000E+00 0. -1.
      -12    1    3    3    0    0 -0.80691404709E+01 -0.23875397093E+02  0.28452026600E+02  0.38008728365E+02  0.00000000000E+00 0.  1.
        2    1    1    2  501    0  0.97535485557E+02 -0.43429898342E+02  0.61483753818E+02  0.12320543412E+03  0.00000000000E+00 0. -1.
</event>
<event>
 5   1  0.6181100E+00  0.7937185E+02  0.7957747E-01  0.1329262E+00
       -4   -1    0    0    0  501  0.00000000000E+00  0.00000000000E+00  0.30786852470E+02  0.30786852470E+02  0.00000000000E+00 0.  1.
        3   -1    0    0  501    0  0.00000000000E+00  0.00000000000E+00 -0.51157314115E+02  0.51157314115E+02  0.00000000000E+00 0. -1.
      -24    2    1    2    0    0  0.00000000000E+00  0.00000000000E+00 -0.20370461645E+02  0.81944166585E+02  0.79371850990E+02 0.  0.
       11    1    3    3    0    0 -0.79544648871E+00 -0.39574113463E+02 -0.13146910042E+02  0.41708325730E+02  0.00000000000E+00 0. -1.
      -12    1    3    3    0    0  0.79544648871E+00  0.39574113463E+02 -0.72235516025E+01  0.40235840855E+02  0.00000000000E+00 0.  1.
</event>
<event>
 5   1  0.6181100E+00  0.7929159E+02  0.7957747E-01  0.1329480E+00
       -2   -1    0    0    0  501  0.00000000000E+00  0.00000000000E+00  0.45427429594E+02  0.45427429594E+02  0.00000000000E+00 0.  1.
        1   -1    0    0  501    0  0.00000000000E+00  0.00000000000E+00 -0.34600001017E+02  0.34600001017E+02  0.00000000000E+00 0. -1.
      -24    2    1    2    0    0  0.00000000000E+00  0.00000000000E+00  0.10827428577E+02  0.80027430610E+02  0.79291591234E+02 0.  0.
       11    1    3    3    0    0 -0.35906219878E+02 -0.14964726280E+02 -0.23116942728E+01  0.38968494825E+02  0.00000000000E+00 0. -1.
      -12    1    3    3    0    0  0.35906219878E+02  0.14964726280E+02  0.13139122850E+02  0.41058935785E+02  0.00000000000E+00 0.  1.
</event>
<event>
 6   2  0.6181100E+00  0.8703343E+02  0.7957747E-01  0.1309688E+00
        3   -1    0    0  502    0  0.00000000000E+00  0.00000000000E+00  0.28756085426E+03  0.28756085426E+03  0.00000000000E+00 0. -1.
       -4   -1    0    0    0  501  0.00000000000E+00  0.00000000000E+00 -0.12850955517E+02  0.12850955517E+02  0.00000000000E+00 0.  1.
      -24    2    1    2    0    0  0.19525107337E+02 -0.25515189050E+02  0.22474487019E+03  0.24100845325E+03  0.80886112347E+02 0.  0.
       11    1    3    3    0    0  0.29446693110E+02  0.59714864022E+01  0.26589478782E+02  0.40121898844E+02  0.00000000000E+00 0. -1.
      -12    1    3    3    0    0 -0.99215857734E+01 -0.31486675453E+02  0.19815539141E+03  0.20088655441E+03  0.00000000000E+00 0.  1.
       21    1    1    2  502  501 -0.19525107337E+02  0.25515189050E+02  0.49965028546E+02  0.59403356525E+02  0.00000000000E+00 0.  1.
</event>
<event>
 6   2  0.6181100E+00  0.8485466E+02  0.7957747E-01  0.1315015E+00
        1   -1    0    0  502    0  0.00000000000E+00  0.00000000000E+00  0.44403492381E+03  0.44403492381E+03  0.00000000000E+00 0. -1.
       -2   -1    0    0    0  501  0.00000000000E+00  0.00000000000E+00 -0.76533578070E+01  0.76533578070E+01  0.00000000000E+00 0.  1.
      -24    2    1    2    0    0  0.26931364132E+02  0.34418697566E+01  0.26743529621E+03  0.28057432275E+03  0.80393831153E+02 0.  0.
       11    1    3    3    0    0  0.29194626673E+02 -0.29436183297E+02  0.21254468066E+03  0.21655035532E+03  0.00000000000E+00 0. -1.
      -12    1    3    3    0    0 -0.22632625418E+01  0.32878053053E+02  0.54890615550E+02  0.64023967429E+02  0.00000000000E+00 0.  1.
       21    1    1    2  502  501 -0.26931364132E+02 -0.34418697566E+01  0.16894626979E+03  0.17111395886E+03  0.00000000000E+00 0. -1.
</event>
<event>
 4   3  0.6181100E+00  0.1734217E+03  0.7957747E-01  0.1179712E+00
       21   -1    0    0  503  502  0.00000000000E+00  0.00000000000E+00  0.10447397970E+04  0.10447397970E+04  0.00000000000E+00 0. -1.
       21   -1    0    0  501  503  0.00000000000E+00  0.00000000000E+00 -0.34810254966E+02  0.34810254966E+02  0.00000000000E+00 0. -1.
        6    1    1    2  501    0  0.11734818067E+02  0.28940408447E+01  0.28043734661E+03  0.32972744320E+03  0.17300000000E+03 0. -1.
       -6    1    1    2    0  502 -0.11734818067E+02 -0.28940408447E+01  0.72949219540E+03  0.74982260874E+03  0.17300000000E+03 0. -1.
</event>
<event>
 5   1  0.6181100E+00  0.8045096E+02  0.7957747E-01  0.1326357E+00
       -2   -1    0    0    0  501  0.00000000000E+00  0.00000000000E+00  0.43200990778E+02  0.43200990778E+02  0.00000000000E+00 0.  1.
        1   -1    0    0  501    0  0.00000000000E+00  0.00000000000E+00 -0.37454906113E+02  0.37454906113E+02  0.00000000000E+00 0. -1.
      -24    2    1    2    0    0  0.00000000000E+00  0.00000000000E+00  0.57460846651E+01  0.80655896890E+02  0.80450955334E+02 0.  0.
       11    1    3    3    0    0 -0.69037397108E+01 -0.94003569056E+01 -0.35722568445E+02  0.37578321254E+02  0.00000000000E+00 0. -1.
      -12    1    3    3    0    0  0.69037397108E+01  0.94003569056E+01  0.41468653110E+02  0.43077575637E+02  0.00000000000E+00 0.  1.
</event>
<event>
 5   1  0.6181100E+00  0.8430357E+02  0.7957747E-01  0.1316392E+00
       -2   -1    0    0    0  501  0.00000000000E+00  0.00000000000E+00  0.74865452848E+01  0.74865452848E+01  0.00000000000E+00 0.  1.
        1   -1    0    0  501    0  0.00000000000E+00  0.00000000000E+00 -0.23732883342E+03  0.23732883342E+03  0.00000000000E+00 0. -1.
      -24    2    1    2    0    0  0.00000000000E+00  0.00000000000E+00 -0.22984228814E+03  0.24481537871E+03  0.84303571900E+02 0.  0.
       11    1    3    3    0    0 -0.23539612289E+02  0.29635265713E+02 -0.61028305146E+02  0.71810976526E+02  0.00000000000E+00 0. -1.
      -12    1    3    3    0    0  0.23539612289E+02 -0.29635265713E+02 -0.16881398299E+03  0.17300440218E+03  0.00000000000E+00 0.  1.
</event>
<event>
 5   1  0.6181100E+00  0.8006200E+02  0.7957747E-01  0.1327398E+00
       -2   -1    0    0    0  501  0.00000000000E+00  0.00000000000E+00  0.37783088378E+02  0.37783088378E+02  0.00000000000E+00 0.  1.
        1   -1    0    0  501    0  0.00000000000E+00  0.00000000000E+00 -0.42412649511E+02  0.42412649511E+02  0.00000000000E+00 0. -1.
      -24    2    1    2    0    0  0.00000000000E+00  0.00000000000E+00 -0.46295611335E+01  0.80195737889E+02  0.80061998097E+02 0.  0.
       11    1    3    3    0    0 -0.38914960387E+02  0.93855433350E+01 -0.24503550528E+01  0.40105695425E+02  0.00000000000E+00 0. -1.
      -12    1    3    3    0    0  0.38914960387E+02 -0.93855433350E+01 -0.21792060807E+01  0.40090042464E+02  0.00000000000E+00 0.  1.
</event>
<event>
 5   1  0.6181100E+00  0.7817510E+02  0.7957747E-01  0.1332546E+00
        3   -1    0    0  501    0  0.00000000000E+00  0.00000000000E+00  0.22934164516E+02  0.22934164516E+02  0.00000000000E+00 0. -1.
       -4   -1    0    0    0  501  0.00000000000E+00  0.00000000000E+00 -0.66618369516E+02  0.66618369516E+02  0.00000000000E+00 0.  1.
      -24    2    1    2    0    0  0.00000000000E+00  0.00000000000E+00 -0.43684205000E+02  0.89552534032E+02  0.78175102079E+02 0.  0.
       11    1    3    3    0    0 -0.13253622675E+02  0.32892701864E+02 -0.40673862245E+02  0.53962500126E+02  0.00000000000E+00 0. -1.
      -12    1    3    3    0    0  0.13253622675E+02 -0.32892701864E+02 -0.30103427548E+01  0.35590033906E+02  0.00000000000E+00 0.  1.
</event>
<event>
 5   1  0.6181100E+00  0.8250070E+02  0.7957747E-01  0.1320978E+00
       -2   -1    0    0    0  501  0.00000000000E+00  0.00000000000E+00  0.14687927497E+02  0.14687927497E+02  0.00000000000E+00 0.  1.
        1   -1    0    0  501    0  0.00000000000E+00  0.00000000000E+00 -0.11584964984E+03  0.11584964984E+03  0.00000000000E+00 0. -1.
      -24    2    1    2    0    0  0.00000000000E+00  0.00000000000E+00 -0.10116172234E+03  0.13053757733E+03  0.82500697144E+02 0.  0.
       11    1    3    3    0    0  0.77019921738E+01  0.24932360235E+02 -0.10113025145E+03  0.10444266862E+03  0.00000000000E+00 0. -1.
      -12    1    3    3    0    0 -0.77019921738E+01 -0.24932360235E+02 -0.31470890218E-01  0.26094908713E+02  0.00000000000E+00 0.  1.
</event>
<event>
 6   2  0.6181100E+00  0.8163480E+02  0.7957747E-01  0.1323229E+00
       -4   -1    0    0    0  501  0.00000000000E+00  0.00000000000E+00  0.32662153083E+02  0.32662153083E+02  0.00000000000E+00 0.  1.
       21   -1    0    0  501  502  0.00000000000E+00  0.00000000000E+00 -0.13037676337E+03  0.13037676337E+03  0.00000000000E+00 0.  1.
      -24    2    1    2    0    0 -0.65162692818E+01 -0.19319694463E+02 -0.21886953231E+02  0.84517926047E+02  0.79047635905E+02 0.  0.
       11    1    3    3    0    0 -0.36735193651E+02  0.60095368113E+01 -0.25195681082E+02  0.44948985867E+02  0.00000000000E+00 0. -1.
      -12    1    3    3    0    0  0.30218924370E+02 -0.25329231274E+02  0.33087278509E+01  0.39568940180E+02  0.00000000000E+00 0.  1.
       -3    1    1    2    0  502  0.65162692818E+01  0.19319694463E+02 -0.75827657054E+02  0.78520990402E+02  0.00000000000E+00 0.  1.
</event>
<event>
 5   1  0.6181100E+00  0.8247362E+02  0.7957747E-01  0.1321048E+00
        1   -1    0    0  501    0  0.00000000000E+00  0.00000000000E+00  0.10816874751E+03  0.10816874751E+03  0.00000000000E+00 0. -1.
       -2   -1    0    0    0  501  0.00000000000E+00  0.00000000000E+00 -0.15720570983E+02  0.15720570983E+02  0.00000000000E+00 0.  1.
      -24    2    1    2    0    0  0.00000000000E+00  0.00000000000E+00  0.92448176526E+02  0.12388931849E+03  0.82473619378E+02 0.  0.
       11    1    3    3    0    0  0.16087692220E+02 -0.20848678408E+02  0.93892654286E+02  0.97515700076E+02  0.00000000000E+00 0. -1.
      -12    1    3    3    0    0 -0.16087692220E+02  0.20848678408E+02 -0.14444777601E+01  0.26373618416E+02  0.00000000000E+00 0.  1.
</event>
<event>
 5   1  0.6181100E+00  0.8089154E+02  0.7957747E-01  0.1325186E+00
        1   -1    0    0  501    0  0.00000000000E+00  0.00000000000E+00  0.31659885759E+03  0.31659885759E+03  0.00000000000E+00 0. -1.
       -2   -1    0    0    0  501  0.00000000000E+00  0.00000000000E+00 -0.51669807183E+01  0.51669807183E+01  0.00000000000E+00 0.  1.
      -24    2    1    2    0    0  0.00000000000E+00  0.00000000000E+00  0.31143187687E+03  0.32176583831E+03  0.80891537075E+02 0.  0.
       11    1    3    3    0    0 -0.33648080950E+02 -0.21937051540E+02  0.17455575872E+03  0.17911767217E+03  0.00000000000E+00 0. -1.
      -12    1    3    3    0    0  0.33648080950E+02  0.21937051540E+02  0.13687611815E+03  0.14264816614E+03  0.00000000000E+00 0.  1.
</event>
<event>
 5   1  0.6181100E+00  0.7786147E+02  0.7957747E-01  0.1333417E+00
       -2   -1    0    0    0  501  0.00000000000E+00  0.00000000000E+00  0.71449024860E+01  0.71449024860E+01  0.00000000000E+00 0.  1.
        1   -1    0    0  501    0  0.00000000000E+00  0.00000000000E+00 -0.21212356677E+03  0.21212356677E+03  0.00000000000E+00 0. -1.
      -24    2    1    2    0    0  0.00000000000E+00  0.00000000000E+00 -0.20497866428E+03  0.21926846926E+03  0.77861471847E+02 0.  0.
       11    1    3    3    0    0  0.12885079854E+02 -0.33815293203E+02 -0.14291857306E+03  0.14742868738E+03  0.00000000000E+00 0. -1.
      -12    1    3    3    0    0 -0.12885079854E+02  0.33815293203E+02 -0.62060091228E+02  0.71839781880E+02  0.00000000000E+00 0.  1.
</event>
<event>
 5   1  0.6181100E+00  0.8161573E+02  0.7957747E-01  0.1323279E+00
       -4   -1    0    0    0  501  0.00000000000E+00  0.00000000000E+00  0.17952287409E+02  0.17952287409E+02  0.00000000000E+00 0.  1.
        3   -1    0    0  501    0  0.00000000000E+00  0.00000000000E+00 -0.92761530037E+02  0.92761530037E+02  0.00000000000E+00 0. -1.
      -24    2    1    2    0    0  0.00000000000E+00  0.00000000000E+00 -0.74809242628E+02  0.11071381745E+03  0.81615725146E+02 0.  0.
       11    1    3    3    0    0 -0.20178606923E+02  0.28494719339E+02 -0.66057717995E+02  0.74717784458E+02  0.00000000000E+00 0. -1.
      -12    1    3    3    0    0  0.20178606923E+02 -0.28494719339E+02 -0.87515246329E+01  0.35996032989E+02  0.00000000000E+00 0.  1.
</event>
<event>
 5   1  0.6181100E+00  0.8075290E+02  0.7957747E-01  0.1325553E+00
       -2   -1    0    0    0  501  0.00000000000E+00  0.00000000000E+00  0.11567440695E+03  0.11567440695E+03  0.00000000000E+00 0.  1.
        1   -1    0    0  501    0  0.00000000000E+00  0.00000000000E+00 -0.14093504492E+02  0.14093504492E+02  0.00000000000E+00 0. -1.
      -24    2    1    2    0    0  0.00000000000E+00  0.00000000000E+00  0.10158090246E+03  0.12976791144E+03  0.80752901471E+02 0.  0.
       11    1    3    3    0    0  0.39286318303E+02 -0.81332107992E+01  0.43480241604E+02  0.59161603542E+02  0.00000000000E+00 0. -1.
      -12    1    3    3    0    0 -0.39286318303E+02  0.81332107992E+01  0.58100660856E+02  0.70606307902E+02  0.00000000000E+00 0.  1.
</event>
<event>
 5   1  0.6181100E+00  0.7941285E+02  0.7957747E-01  0.1329151E+00
        1   -1    0    0  501    0  0.00000000000E+00  0.00000000000E+00  0.12640159819E+02  0.12640159819E+02  0.00000000000E+00 0. -1.
       -2   -1    0    0    0  501  0.00000000000E+00  0.00000000000E+00 -0.12472944461E+03  0.12472944461E+03  0.00000000000E+00 0.  1.
      -24    2    1    2    0    0  0.00000000000E+00  0.00000000000E+00 -0.11208928479E+03  0.13736960443E+03  0.79412848178E+02 0.  0.
       11    1    3    3    0    0 -0.34107433465E+02 -0.85815238633E+01 -0.24165279062E+02  0.42672242518E+02  0.00000000000E+00 0. -1.
      -12    1    3    3    0    0  0.34107433465E+02  0.85815238633E+01 -0.87924005725E+02  0.94697361907E+02  0.00000000000E+00 0.  1.
</event>
<event>
 6   2  0.6181100E+00  0.8509915E+02  0.7957747E-01  0.1314409E+00
       -2   -1    0    0    0  501  0.00000000000E+00  0.00000000000E+00  0.27413862873E+02  0.27413862873E+02  0.00000000000E+00 0.  1.
       21   -1    0    0  501  502  0.00000000000E+00  0.00000000000E+00 -0.10955696640E+03  0.10955696640E+03  0.00000000000E+00 0. -1.
      -24    2    1    2    0    0  0.12785713093E+02  0.19122666290E+02 -0.73337026306E+02  0.11233959258E+03  0.81931152852E+02 0.  0.
       11    1    3    3    0    0  0.30675697524E+02  0.44148146056E+02 -0.40220880642E+02  0.67139976604E+02  0.00000000000E+00 0. -1.
      -12    1    3    3    0    0 -0.17889984431E+02 -0.25025479766E+02 -0.33116145664E+02  0.45199615973E+02  0.00000000000E+00 0.  1.
       -1    1    1    2    0  502 -0.12785713093E+02 -0.19122666290E+02 -0.88060772256E+01  0.24631236701E+02  0.00000000000E+00 0.  1.
</event>
<event>
 5   1  0.6181100E+00  0.8376725E+02  0.7957747E-01  0.1317742E+00
        1   -1    0    0  501    0  0.00000000000E+00  0.00000000000E+00  0.55376947841E+01  0.55376947841E+01  0.00000000000E+00 0. -1.
       -2   -1    0    0    0  501  0.00000000000E+00  0.00000000000E+00 -0.31678125605E+03  0.31678125605E+03  0.00000000000E+00 0.  1.
      -24    2    1    2    0    0  0.00000000000E+00  0.00000000000E+00 -0.31124356127E+03  0.32231895084E+03  0.83767246806E+02 0.  0.
       11    1    3    3    0    0 -0.54390046943E+01 -0.18644775531E+02 -0.12836676342E+02  0.23280693421E+02  0.00000000000E+00 0. -1.
      -12    1    3    3    0    0  0.54390046943E+01  0.18644775531E+02 -0.29840688493E+03  0.29903825742E+03  0.00000000000E+00 0.  1.
</event>
<event>
 5   1  0.6181100E+00  0.8061131E+02  0.7957747E-01  0.1325930E+00
       -2   -1    0    0    0  501  0.00000000000E+00  0.00000000000E+00  0.10154684496E+03  0.10154684496E+03  0.00000000000E+00 0.  1.
        1   -1    0    0  501    0  0.00000000000E+00  0.00000000000E+00 -0.15997992480E+02  0.15997992480E+02  0.00000000000E+00 0. -1.
      -24    2    1    2    0    0  0.00000000000E+00  0.00000000000E+00  0.85548852484E+02  0.11754483744E+03  0.80611305958E+02 0.  0.
       11    1    3    3    0    0 -0.55867279356E+01 -0.89648505828E+01 -0.13943733001E+02  0.17493077631E+02  0.00000000000E+00 0. -1.
      -12    1    3    3    0    0  0.55867279356E+01  0.89648505828E+01  0.99492585485E+02  0.10005175981E+03  0.00000000000E+00 0.  1.
</event>
<event>
 5   1  0.6181100E+00  0.7868989E+02  0.7957747E-01  0.1331125E+00
        3   -1    0    0  501    0  0.00000000000E+00  0.00000000000E+00  0.24909875297E+02  0.24909875297E+02  0.00000000000E+00 0. -1.
       -4   -1    0    0    0  501  0.00000000000E+00  0.00000000000E+00 -0.62145017725E+02  0.62145017725E+02  0.00000000000E+00 0.  1.
      -24    2    1    2    0    0  0.00000000000E+00  0.00000000000E+00 -0.37235142427E+02  0.87054893022E+02  0.78689888597E+02 0.  0.
       11    1    3    3    0    0  0.21574092087E+02 -0.43872234195E+01  0.17457683387E+02  0.28097328840E+02  0.00000000000E+00 0. -1.
      -12    1    3    3    0    0 -0.21574092087E+02  0.43872234195E+01 -0.54692825814E+02  0.58957564182E+02  0.00000000000E+00 0.  1.
</event>
<event>
 5   1  0.6181100E+00  0.8067257E+02  0.7957747E-01  0.1325767E+00
       -2   -1    0    0    0  501  0.00000000000E+00  0.00000000000E+00  0.21849946228E+02  0.21849946228E+02  0.00000000000E+00 0.  1.
        1   -1    0    0  501    0  0.00000000000E+00  0.00000000000E+00 -0.74463152464E+02  0.74463152464E+02  0.00000000000E+00 0. -1.
      -24    2    1    2    0    0  0.00000000000E+00  0.00000000000E+00 -0.52613206236E+02  0.96313098691E+02  0.80672569744E+02 0.  0.
       11    1    3    3    0    0 -0.29468445519E+02 -0.84538986892E+01 -0.57602530758E+02  0.65252656912E+02  0.00000000000E+00 0. -1.
      -12    1    3    3    0    0  0.29468445519E+02  0.84538986892E+01  0.49893245218E+01  0.31060441779E+02  0.00000000000E+00 0.  1.
</event>
<event>
 4   3  0.6181100E+00  0.1784749E+03  0.7957747E-01  0.1174854E+00
       21   -1    0    0  503  502  0.00000000000E+00  0.00000000000E+00  0.10351728695E+03  0.10351728695E+03  0.00000000000E+00 0. -1.
       21   -1    0    0  501  503  0.00000000000E+00  0.00000000000E+00 -0.32794406186E+03  0.32794406186E+03  0.00000000000E+00 0.  1.
        6    1    1    2  501    0  0.13055524082E+02  0.41879083238E+02 -0.16579966099E+03  0.24360384215E+03  0.17300000000E+03 0.  1.
       -6    1    1    2    0  502 -0.13055524082E+02 -0.41879083238E+02 -0.58627113917E+02  0.18785750666E+03  0.17300000000E+03 0. -1.
</event>
<event>
 4   3  0.6181100E+00  0.1997173E+03  0.7957747E-01  0.1156215E+00
       21   -1    0    0  501  502  0.00000000000E+00  0.00000000000E+00  0.24978317203E+03  0.24978317203E+03  0.00000000000E+00 0. -1.
       21   -1    0    0  502  503  0.00000000000E+00  0.00000000000E+00 -0.63755034479E+03  0.63755034479E+03  0.00000000000E+00 0. -1.
        6    1    1    2  501    0 -0.99712506749E+02  0.39266070013E+01  0.19022297986E+03  0.27581113885E+03  0.17300000000E+03 0. -1.
       -6    1    1    2    0  503  0.99712506749E+02 -0.39266070013E+01 -0.57799015262E+03  0.61152237798E+03  0.17300000000E+03 0. -1.
</event>
<event>
 5   1  0.6181100E+00  0.8019926E+02  0.7957747E-01  0.1327030E+00
        3   -1    0    0  501    0  0.00000000000E+00  0.00000000000E+00  0.51198265658E+02  0.51198265658E+02  0.00000000000E+00 0. -1.
       -4   -1    0    0    0  501  0.00000000000E+00  0.00000000000E+00 -0.31406932821E+02  0.31406932821E+02  0.00000000000E+00 0.  1.
      -24    2    1    2    0    0  0.00000000000E+00  0.00000000000E+00  0.19791332837E+02  0.82605198479E+02  0.80199264088E+02 0.  0.
       11    1    3    3    0    0 -0.39399907476E+01 -0.26511761860E+02  0.40616312297E+02  0.48662941430E+02  0.00000000000E+00 0. -1.
      -12    1    3    3    0    0  0.39399907476E+01  0.26511761860E+02 -0.20824979461E+02  0.33942257049E+02  0.00000000000E+00 0.  1.
</event>
<event>
 5   1  0.6181100E+00  0.8257749E+02  0.7957747E-01  0.1320780E+00
        1   -1    0    0  501    0  0.00000000000E+00  0.00000000000E+00  0.47780926735E+02  0.47780926735E+02  0.00000000000E+00 0. -1.
       -2   -1    0    0    0  501  0.00000000000E+00  0.00000000000E+00 -0.35678685517E+02  0.35678685517E+02  0.00000000000E+00 0.  1.
      -24    2    1    2    0    0  0.00000000000E+00  0.00000000000E+00  0.12102241218E+02  0.83459612251E+02  0.82577494723E+02 0.  0.
       11    1    3    3    0    0  0.10511070387E+02  0.39916226876E+02  0.70480089808E+01  0.41874362076E+02  0.00000000000E+00 0. -1.
      -12    1    3    3    0    0 -0.10511070387E+02 -0.39916226876E+02  0.50542322373E+01  0.41585250176E+02  0.00000000000E+00 0.  1.
</event>
<event>
 5   1  0.6181100E+00  0.7736686E+02  0.7957747E-01  0.1334801E+00
        1   -1    0    0  501    0  0.00000000000E+00  0.00000000000E+00  0.46996310486E+01  0.46996310486E+01  0.00000000000E+00 0. -1.
       -2   -1    0    0    0  501  0.00000000000E+00  0.00000000000E+00 -0.31840963573E+03  0.31840963573E+03  0.00000000000E+00 0.  1.
      -24    2    1    2    0    0  0.00000000000E+00  0.00000000000E+00 -0.31371000468E+03  0.32310926678E+03  0.77366861387E+02 0.  0.
       11    1    3    3    0    0  0.28420266151E+01 -0.17448676967E+02 -0.13158153768E+02  0.22037932158E+02  0.00000000000E+00 0. -1.
      -12    1    3    3    0    0 -0.28420266151E+01  0.17448676967E+02 -0.30055185091E+03  0.30107133462E+03  0.00000000000E+00 0.  1.
</event>
<event>
 5   1  0.6181100E+00  0.8004769E+02  0.7957747E-01  0.1327437E+00
       -2   -1    0    0    0  501  0.00000000000E+00  0.00000000000E+00  0.12177964413E+03  0.12177964413E+03  0.00000000000E+00 0.  1.
        1   -1    0    0  501    0  0.00000000000E+00  0.00000000000E+00 -0.13154153041E+02  0.13154153041E+02  0.00000000000E+00 0. -1.
      -24    2    1    2    0    0  0.00000000000E+00  0.00000000000E+00  0.10862549109E+03  0.13493379717E+03  0.80047687691E+02 0.  0.
       11    1    3    3    0    0 -0.55357550809E+01 -0.20844790434E+02 -0.25209634730E+01  0.21714168862E+02  0.00000000000E+00 0. -1.
      -12    1    3    3    0    0  0.55357550809E+01  0.20844790434E+02  0.11114645457E+03  0.11321962831E+03  0.00000000000E+00 0.  1.
</event>
<event>
 6   2  0.6181100E+00  0.9023736E+02  0.7957747E-01  0.1302165E+00
       21   -1    0    0  501  502  0.00000000000E+00  0.00000000000E+00  0.39682715175E+02  0.39682715175E+02  0.00000000000E+00 0. -1.
        1   -1    0    0  502    0  0.00000000000E+00  0.00000000000E+00 -0.50809917178E+03  0.50809917178E+03  0.00000000000E+00 0. -1.
      -24    2    1    2    0    0  0.26711484021E+02 -0.27750430689E+02 -0.49358807743E+03  0.50176884232E+03  0.81603867342E+02 0.  0.
       11    1    3    3    0    0  0.35938265264E+02 -0.52402610997E+02 -0.36892631580E+03  0.37435840987E+03  0.00000000000E+00 0. -1.
      -12    1    3    3    0    0 -0.92267812429E+01  0.24652180308E+02 -0.12466176163E+03  0.12741043246E+03  0.00000000000E+00 0.  1.
        2    1    1    2  501    0 -0.26711484021E+02  0.27750430689E+02  0.25171620819E+02  0.46013044636E+02  0.00000000000E+00 0. -1.
</event>
<event>
 5   1  0.6181100E+00  0.8061695E+02  0.7957747E-01  0.1325915E+00
        1   -1    0    0  501    0  0.00000000000E+00  0.00000000000E+00  0.29699314343E+02  0.29699314343E+02  0.00000000000E+00 0. -1.
       -2   -1    0    0    0  501  0.00000000000E+00  0.00000000000E+00 -0.54707428765E+02  0.54707428765E+02  0.00000000000E+00 0.  1.
      -24    2    1    2    0    0  0.00000000000E+00  0.00000000000E+00 -0.25008114422E+02  0.84406743109E+02  0.80616949181E+02 0.  0.
       11    1    3    3    0    0  0.36573315414E+02  0.15275609292E+02 -0.48228652426E+01  0.39927580302E+02  0.00000000000E+00 0. -1.
      -12    1    3    3    0    0 -0.36573315414E+02 -0.15275609292E+02 -0.20185249179E+02  0.44479162807E+02  0.00000000000E+00 0.  1.
</event>
<event>
 5   1  0.6181100E+00  0.7576502E+02  0.7957747E-01  0.1339365E+00
        3   -1    0    0  501    0  0.00000000000E+00  0.00000000000E+00  0.84141153783E+01  0.84141153783E+01  0.00000000000E+00 0. -1.
       -4   -1    0    0    0  501  0.00000000000E+00  0.00000000000E+00 -0.17055681498E+03  0.17055681498E+03  0.00000000000E+00 0.  1.
      -24    2    1    2    0    0  0.00000000000E+00  0.00000000000E+00 -0.16214269960E+03  0.17897093036E+03  0.75765024116E+02 0.  0.
       11    1    3    3    0    0  0.17574897217E+02 -0.29140283202E+02 -0.41753110352E+02  0.53864230629E+02  0.00000000000E+00 0. -1.
      -12    1    3    3    0    0 -0.17574897217E+02  0.29140283202E+02 -0.12038958925E+03  0.12510669973E+03  0.00000000000E+00 0.  1.
</event>
<event>
 5   1  0.6181100E+00  0.8037369E+02  0.7957747E-01  0.1326563E+00
       -4   -1    0    0    0  501  0.00000000000E+00  0.00000000000E+00  0.54395261595E+03  0.54395261595E+03  0.00000000000E+00 0.  1.
        3   -1    0    0  501    0  0.00000000000E+00  0.00000000000E+00 -0.29689767740E+01  0.29689767740E+01  0.00000000000E+00 0. -1.
      -24    2    1    2    0    0  0.00000000000E+00  0.00000000000E+00  0.54098363917E+03  0.54692159272E+03  0.80373694277E+02 0.  0.
       11    1    3    3    0    0 -0.20665533102E+02  0.12641289983E+01  0.36116358739E+02  0.41629960954E+02  0.00000000000E+00 0. -1.
      -12    1    3    3    0    0  0.20665533102E+02 -0.12641289983E+01  0.50486728043E+03  0.50529163177E+03  0.00000000000E+00 0.  1.
</event>
<event>
 5   1  0.6181100E+00  0.8016245E+02  0.7957747E-01  0.1327129E+00
       -2   -1    0    0    0  501  0.00000000000E+00  0.00000000000E+00  0.55227418828E+03  0.55227418828E+03  0.00000000000E+00 0.  1.
        1   -1    0    0  501    0  0.00000000000E+00  0.00000000000E+00 -0.29088894114E+01  0.29088894114E+01  0.00000000000E+00 0. -1.
      -24    2    1    2    0    0  0.00000000000E+00  0.00000000000E+00  0.54936529886E+03  0.55518307769E+03  0.80162448527E+02 0.  0.
       11    1    3    3    0    0  0.85606944220E+01  0.11854990358E+02  0.16224254439E+02  0.21841536518E+02  0.00000000000E+00 0. -1.
      -12    1    3    3    0    0 -0.85606944220E+01 -0.11854990358E+02  0.53314104443E+03  0.53334154117E+03  0.00000000000E+00 0.  1.
</event>
<event>
 6   2  0.6181100E+00  0.8246314E+02  0.7957747E-01  0.1321075E+00
        3   -1    0    0  502    0  0.00000000000E+00  0.00000000000E+00  0.10029914076E+03  0.10029914076E+03  0.00000000000E+00 0. -1.
       -4   -1    0    0    0  501  0.00000000000E+00  0.00000000000E+00 -0.33845036395E+02  0.33845036395E+02  0.00000000000E+00 0.  1.
      -24    2    1    2    0    0  0.11228573159E+02 -0.21512496019E+02  0.25104406696E+02  0.86199773546E+02  0.78811809925E+02 0.  0.
       11    1    3    3    0    0  0.26859626708E+02 -0.22804983275E+02  0.47324973594E+02  0.59001355363E+02  0.00000000000E+00 0. -1.
      -12    1    3    3    0    0 -0.15631053549E+02  0.12924872560E+01 -0.22220566898E+02  0.27198418182E+02  0.00000000000E+00 0.  1.
       21    1    1    2  502  501 -0.11228573159E+02  0.21512496019E+02  0.41349697666E+02  0.47944403607E+02  0.00000000000E+00 0. -1.
</event>
<event>
 4   3  0.6181100E+00  0.1998430E+03  0.7957747E-01  0.1156112E+00
       21   -1    0    0  501  502  0.00000000000E+00  0.00000000000E+00  0.11322483167E+03  0.11322483167E+03  0.00000000000E+00 0. -1.
       21   -1    0    0  502  503  0.00000000000E+00  0.00000000000E+00 -0.49647409044E+03  0.49647409044E+03  0.00000000000E+00 0. -1.
        6    1    1    2  501    0 -0.54946892141E+02  0.83600521832E+02 -0.27588329693E+02  0.20173825652E+03  0.17300000000E+03 0. -1.
       -6    1    1    2    0  503  0.54946892141E+02 -0.83600521832E+02 -0.35566092908E+03  0.40796066560E+03  0.17300000000E+03 0. -1.
</event>
<event>
 6   2  0.6181100E+00  0.9689816E+02  0.7957747E-01  0.1287595E+00
        3   -1    0    0  502    0  0.00000000000E+00  0.00000000000E+00  0.10777818259E+03  0.10777818259E+03  0.00000000000E+00 0. -1.
       21   -1    0    0  501  502  0.00000000000E+00  0.00000000000E+00 -0.63301850508E+02  0.63301850508E+02  0.00000000000E+00 0. -1.
      -24    2    1    2    0    0  0.29237489554E+02 -0.42358060342E+02 -0.84356161833E+01  0.97264652988E+02  0.82098824773E+02 0.  0.
       11    1    3    3    0    0 -0.25994284006E+01 -0.49294305733E+02 -0.30396648353E+02  0.57971043089E+02  0.00000000000E+00 0. -1.
      -12    1    3    3    0    0  0.31836917955E+02  0.69362453904E+01  0.21961032170E+02  0.39293609900E+02  0.00000000000E+00 0.  1.
        4    1    1    2  501    0 -0.29237489554E+02  0.42358060342E+02  0.52911948261E+02  0.73815380106E+02  0.00000000000E+00 0. -1.
</event>
<event>
 5   1  0.6181100E+00  0.8355377E+02  0.7957747E-01  0.1318283E+00
       -4   -1    0    0    0  501  0.00000000000E+00  0.00000000000E+00  0.30035486153E+02  0.30035486153E+02  0.00000000000E+00 0.  1.
        3   -1    0    0  501    0  0.00000000000E+00  0.00000000000E+00 -0.58108197638E+02  0.58108197638E+02  0.00000000000E+00 0. -1.
      -24    2    1    2    0    0  0.00000000000E+00  0.00000000000E+00 -0.28072711485E+02  0.88143683791E+02  0.83553766295E+02 0.  0.
       11    1    3    3    0    0 -0.61466590820E+01 -0.24933661086E+02 -0.48798607661E+02  0.55143204320E+02  0.00000000000E+00 0. -1.
      -12    1    3    3    0    0  0.61466590820E+01  0.24933661086E+02  0.20725896176E+02  0.33000479471E+02  0.00000000000E+00 0.  1.
</event>
<event>
 6   2  0.6181100E+00  0.8756466E+02  0.7957747E-01  0.1308415E+00
        3   -1    0    0  502    0  0.00000000000E+00  0.00000000000E+00  0.55428324339E+02  0.55428324339E+02  0.00000000000E+00 0. -1.
       21   -1    0    0  501  502  0.00000000000E+00  0.00000000000E+00 -0.99687684827E+02  0.99687684827E+02  0.00000000000E+00 0. -1.
      -24    2    1    2    0    0 -0.41709439644E+01  0.34300171072E+02  0.12714865473E+02  0.88482977321E+02  0.80459126035E+02 0.  0.
       11    1    3    3    0    0 -0.19549845831E+02  0.56143139406E+02  0.16007767373E+02  0.61567013820E+02  0.00000000000E+00 0. -1.
      -12    1    3    3    0    0  0.15378901866E+02 -0.21842968334E+02 -0.32929019001E+01  0.26915963501E+02  0.00000000000E+00 0.  1.
        4    1    1    2  501    0  0.41709439644E+01 -0.34300171072E+02 -0.56974225960E+02  0.66633031845E+02  0.00000000000E+00 0. -1.
</event>
<event>
 6   2  0.6181100E+00  0.1088642E+03  0.7957747E-01  0.1264463E+00
        1   -1    0    0  502    0  0.00000000000E+00  0.00000000000E+00  0.37984955145E+03  0.37984955145E+03  0.00000000000E+00 0. -1.
       21   -1    0    0  501  502  0.00000000000E+00  0.00000000000E+00 -0.21897483842E+02  0.21897483842E+02  0.00000000000E+00 0. -1.
      -24    2    1    2    0    0  0.56300469104E+01 -0.73059534395E+02  0.20326773566E+03  0.23058443557E+03  0.80510971744E+02 0.  0.
       11    1    3    3    0    0  0.40089403366E+02 -0.57984046821E+02  0.14506515697E+03  0.16128611135E+03  0.00000000000E+00 0. -1.
      -12    1    3    3    0    0 -0.34459356456E+02 -0.15075487574E+02  0.58202578687E+02  0.69298324213E+02  0.00000000000E+00 0.  1.
        2    1    1    2  501    0 -0.56300469104E+01  0.73059534395E+02  0.15468433195E+03  0.17116259973E+03  0.00000000000E+00 0. -1.
</event>
<event>
 5   1  0.6181100E+00  0.8160250E+02  0.7957747E-01  0.1323313E+00
       -2   -1    0    0    0  501  0.00000000000E+00  0.00000000000E+00  0.16421359144E+02  0.16421359144E+02  0.00000000000E+00 0.  1.
        1   -1    0    0  501    0  0.00000000000E+00  0.00000000000E+00 -0.10137663559E+03  0.10137663559E+03  0.00000000000E+00 0. -1.
      -24    2    1    2    0    0  0.00000000000E+00  0.00000000000E+00 -0.84955276441E+02  0.11779799473E+03  0.81602503437E+02 0.  0.
       11    1    3    3    0    0 -0.15040377896E+02  0.37870950103E+02 -0.39477149407E+02  0.56735061067E+02  0.00000000000E+00 0. -1.
      -12    1    3    3    0    0  0.15040377896E+02 -0.37870950103E+02 -0.45478127035E+02  0.61062933663E+02  0.00000000000E+00 0.  1.
</event>
<event>
 6   2  0.6181100E+00  0.1312900E+03  0.7957747E-01  0.1228947E+00
       21   -1    0    0  501  502  0.00000000000E+00  0.00000000000E+00  0.35535374605E+02  0.35535374605E+02  0.00000000000E+00 0. -1.
        1   -1    0    0  502    0  0.00000000000E+00  0.00000000000E+00 -0.39250718344E+03  0.39250718344E+03  0.00000000000E+00 0. -1.
      -24    2    1    2    0    0 -0.83480510733E+02 -0.61993120501E+02 -0.21789559876E+03  0.25439252243E+03  0.80155603957E+02 0.  0.
       11    1    3    3    0    0 -0.83792421324E+02 -0.20244971879E+02 -0.17171254459E+03  0.19213595897E+03  0.00000000000E+00 0. -1.
      -12    1    3    3    0    0  0.31191059046E+00 -0.41748148622E+02 -0.46183054169E+02  0.62256563461E+02  0.00000000000E+00 0.  1.
        2    1    1    2  501    0  0.83480510733E+02  0.61993120501E+02 -0.13907621007E+03  0.17365003562E+03  0.00000000000E+00 0. -1.
</event>
<event>
 4   3  0.6181100E+00  0.1920957E+03  0.7957747E-01  0.1162597E+00
        2   -1    0    0  502    0  0.00000000000E+00  0.00000000000E+00  0.40372395673E+04  0.40372395673E+04  0.00000000000E+00 0. -1.
       -2   -1    0    0    0  501  0.00000000000E+00  0.00000000000E+00 -0.10320184622E+02  0.10320184622E+02  0.00000000000E+00 0.  1.
        6    1    1    2  502    0  0.19677219035E+02  0.81145361551E+02  0.13291123194E+04  0.13429223061E+04  0.17300000000E+03 0.  1.
       -6    1    1    2    0  501 -0.19677219035E+02 -0.81145361551E+02  0.26978070634E+04  0.27046374459E+04  0.17300000000E+03 0. -1.
</event>
<event>
 6   2  0.6181100E+00  0.8565326E+02  0.7957747E-01  0.1313042E+00
       -2   -1    0    0    0  501  0.00000000000E+00  0.00000000000E+00  0.39611662395E+02  0.39611662395E+02  0.00000000000E+00 0.  1.
        1   -1    0    0  502    0  0.00000000000E+00  0.00000000000E+00 -0.78810852611E+02  0.78810852611E+02  0.00000000000E+00 0. -1.
      -24    2    1    2    0    0  0.77152373995E+01 -0.24341801459E+02 -0.25108763854E+02  0.89257667991E+02  0.81758382362E+02 0.  0.
       11    1    3    3    0    0  0.21503102858E+02 -0.43939274567E+02 -0.38095878473E+02  0.62002735735E+02  0.00000000000E+00 0. -1.
      -12    1    3    3    0    0 -0.13787865458E+02  0.19597473108E+02  0.12987114619E+02  0.27254932255E+02  0.00000000000E+00 0.  1.
       21    1    1    2  502  501 -0.77152373995E+01  0.24341801459E+02 -0.14090426361E+02  0.29164847015E+02  0.00000000000E+00 0.  1.
</event>
<event>
 4   3  0.6181100E+00  0.1811094E+03  0.7957747E-01  0.1172392E+00
       21   -1    0    0  501  502  0.00000000000E+00  0.00000000000E+00  0.63377749982E+03  0.63377749982E+03  0.00000000000E+00 0.  1.
       21   -1    0    0  502  503  0.00000000000E+00  0.00000000000E+00 -0.53647523891E+02  0.53647523891E+02  0.00000000000E+00 0.  1.
        6    1    1    2  501    0  0.87641332220E+01  0.52865990923E+02  0.22549400712E+03  0.28921993409E+03  0.17300000000E+03 0.  1.
       -6    1    1    2    0  503 -0.87641332220E+01 -0.52865990923E+02  0.35463596881E+03  0.39820508962E+03  0.17300000000E+03 0.  1.
</event>
<event>
 5   1  0.6181100E+00  0.7773232E+02  0.7957747E-01  0.1333778E+00
       -4   -1    0    0    0  501  0.00000000000E+00  0.00000000000E+00  0.51582075799E+02  0.51582075799E+02  0.00000000000E+00 0.  1.
        3   -1    0    0  501    0  0.00000000000E+00  0.00000000000E+00 -0.29284949821E+02  0.29284949821E+02  0.00000000000E+00 0. -1.
      -24    2    1    2    0    0  0.00000000000E+00  0.00000000000E+00  0.22297125978E+02  0.80867025620E+02  0.77732322786E+02 0.  0.
       11    1    3    3    0    0  0.25139544262E+01  0.21940163084E+02 -0.22123813299E+02  0.31259459974E+02  0.00000000000E+00 0. -1.
      -12    1    3    3    0    0 -0.25139544262E+01 -0.21940163084E+02  0.44420939277E+02  0.49607565645E+02  0.00000000000E+00 0.  1.
</event>
<event>
 5   1  0.6181100E+00  0.7974660E+02  0.7957747E-01  0.1328247E+00
       -4   -1    0    0    0  501  0.00000000000E+00  0.00000000000E+00  0.27356390337E+02  0.27356390337E+02  0.00000000000E+00 0.  1.
        3   -1    0    0  501    0  0.00000000000E+00  0.00000000000E+00 -0.58117325189E+02  0.58117325189E+02  0.00000000000E+00 0. -1.
      -24    2    1    2    0    0  0.00000000000E+00  0.00000000000E+00 -0.30760934852E+02  0.85473715526E+02  0.79746604522E+02 0.  0.
       11    1    3    3    0    0  0.14516100734E+02  0.23498846763E+02 -0.46202731626E+02  0.53829410078E+02  0.00000000000E+00 0. -1.
      -12    1    3    3    0    0 -0.14516100734E+02 -0.23498846763E+02  0.15441796774E+02  0.31644305448E+02  0.00000000000E+00 0.  1.
</event>
<event>
 5   1  0.6181100E+00  0.8089626E+02  0.7957747E-01  0.1325173E+00
        1   -1    0    0  501    0  0.00000000000E+00  0.00000000000E+00  0.64509019705E+02  0.64509019705E+02  0.00000000000E+00 0. -1.
       -2   -1    0    0    0  501  0.00000000000E+00  0.00000000000E+00 -0.25361587294E+02  0.25361587294E+02  0.00000000000E+00 0.  1.
      -24    2    1    2    0    0  0.00000000000E+00  0.00000000000E+00  0.39147432412E+02  0.89870606999E+02  0.80896257874E+02 0.  0.
       11    1    3    3    0    0 -0.18820306244E+02 -0.23125921107E+02  0.49937848473E+02  0.58161850592E+02  0.00000000000E+00 0. -1.
      -12    1    3    3    0    0  0.18820306244E+02  0.23125921107E+02 -0.10790416061E+02  0.31708756408E+02  0.00000000000E+00 0.  1.
</event>
<event>
 5   1  0.6181100E+00  0.8060990E+02  0.7957747E-01  0.1325934E+00
        1   -1    0    0  501    0  0.00000000000E+00  0.00000000000E+00  0.43737299242E+02  0.43737299242E+02  0.00000000000E+00 0. -1.
       -2   -1    0    0    0  501  0.00000000000E+00  0.00000000000E+00 -0.37141958305E+02  0.37141958305E+02  0.00000000000E+00 0.  1.
      -24    2    1    2    0    0  0.00000000000E+00  0.00000000000E+00  0.65953409365E+01  0.80879257547E+02  0.80609898767E+02 0.  0.
       11    1    3    3    0    0  0.47556545573E+00  0.22411232348E+02  0.36905858749E+02  0.43180225889E+02  0.00000000000E+00 0. -1.
      -12    1    3    3    0    0 -0.47556545573E+00 -0.22411232348E+02 -0.30310517812E+02  0.37699031658E+02  0.00000000000E+00 0.  1.
</event>
<event>
 5   1  0.6181100E+00  0.8119676E+02  0.7957747E-01  0.1324379E+00
       -4   -1    0    0    0  501  0.00000000000E+00  0.00000000000E+00  0.54527897322E+01  0.54527897322E+01  0.00000000000E+00 0.  1.
        3   -1    0    0  501    0  0.00000000000E+00  0.00000000000E+00 -0.30227250653E+03  0.30227250653E+03  0.00000000000E+00 0. -1.
      -24    2    1    2    0    0  0.00000000000E+00  0.00000000000E+00 -0.29681971679E+03  0.30772529626E+03  0.81196759046E+02 0.  0.
       11    1    3    3    0    0 -0.32203764735E+02  0.24665846560E+02 -0.14213424945E+03  0.14780944259E+03  0.00000000000E+00 0. -1.
      -12    1    3    3    0    0  0.32203764735E+02 -0.24665846560E+02 -0.15468546734E+03  0.15991585367E+03  0.00000000000E+00 0.  1.
</event>
<event>
 5   1  0.6181100E+00  0.8073293E+02  0.7957747E-01  0.1325606E+00
       -2   -1    0    0    0  501  0.00000000000E+00  0.00000000000E+00  0.25799948238E+01  0.25799948238E+01  0.00000000000E+00 0.  1.
        1   -1    0    0  501    0  0.00000000000E+00  0.00000000000E+00 -0.63157157638E+03  0.63157157638E+03  0.00000000000E+00 0. -1.
      -24    2    1    2    0    0  0.00000000000E+00  0.00000000000E+00 -0.62899158155E+03  0.63415157120E+03  0.80732927556E+02 0.  0.
       11    1    3    3    0    0  0.36292298593E+02  0.12556383713E+02 -0.21681073485E+03  0.22018557731E+03  0.00000000000E+00 0. -1.
      -12    1    3    3    0    0 -0.36292298593E+02 -0.12556383713E+02 -0.41218084670E+03  0.41396599389E+03  0.00000000000E+00 0.  1.
</event>
<event>
 6   2  0.6181100E+00  0.8013272E+02  0.7957747E-01  0.1327208E+00
       21   -1    0    0  501  502  0.00000000000E+00  0.00000000000E+00  0.28265692940E+03  0.28265692940E+03  0.00000000000E+00 0. -1.
        1   -1    0    0  502    0  0.00000000000E+00  0.00000000000E+00 -0.30336833824E+02  0.30336833824E+02  0.00000000000E+00 0. -1.
      -24    2    1    2    0    0  0.20432082866E+01 -0.20221579684E+02  0.23829247120E+02  0.83600749353E+02  0.77512355719E+02 0.  0.
       11    1    3    3    0    0  0.25312451887E+02 -0.12015003775E+02 -0.19222788864E+02  0.33979348846E+02  0.00000000000E+00 0. -1.
      -12    1    3    3    0    0 -0.23269243601E+02 -0.82065759087E+01  0.43052035984E+02  0.49621400507E+02  0.00000000000E+00 0.  1.
        2    1    1    2  501    0 -0.20432082866E+01  0.20221579684E+02  0.22849084845E+03  0.22939301387E+03  0.00000000000E+00 0. -1.
</event>
<event>
 5   1  0.6181100E+00  0.8333311E+02  0.7957747E-01  0.1318844E+00
        1   -1    0    0  501    0  0.00000000000E+00  0.00000000000E+00  0.21360648549E+02  0.21360648549E+02  0.00000000000E+00 0. -1.
       -2   -1    0    0    0  501  0.00000000000E+00  0.00000000000E+00 -0.81275715803E+02  0.81275715803E+02  0.00000000000E+00 0.  1.
      -24    2    1    2    0    0  0.00000000000E+00  0.00000000000E+00 -0.59915067255E+02  0.10263636435E+03  0.83333114686E+02 0.  0.
       11    1    3    3    0    0  0.40187777467E+02 -0.90343802192E+01 -0.22224198397E+02  0.46803765640E+02  0.00000000000E+00 0. -1.
      -12    1    3    3    0    0 -0.40187777467E+02  0.90343802192E+01 -0.37690868857E+02  0.55832598712E+02  0.00000000000E+00 0.  1.
</event>
<event>
 5   1  0.6181100E+00  0.7989021E+02  0.7957747E-01  0.1327860E+00
        1   -1    0    0  501    0  0.00000000000E+00  0.00000000000E+00  0.15140099699E+03  0.15140099699E+03  0.00000000000E+00 0. -1.
       -2   -1    0    0    0  501  0.00000000000E+00  0.00000000000E+00 -0.10538974958E+02  0.10538974958E+02  0.00000000000E+00 0.  1.
      -24    2    1    2    0    0  0.00000000000E+00  0.00000000000E+00  0.14086202203E+03  0.16193997195E+03  0.79890207558E+02 0.  0.
       11    1    3    3    0    0 -0.16381805044E+02 -0.20971646970E+02  0.13081606690E+03  0.13349538147E+03  0.00000000000E+00 0. -1.
      -12    1    3    3    0    0  0.16381805044E+02  0.20971646970E+02  0.10045955127E+02  0.28444590480E+02  0.00000000000E+00 0.  1.
</event>
<event>
 4   3  0.6181100E+00  0.1738244E+03  0.7957747E-01  0.1179318E+00
        2   -1    0    0  502    0  0.00000000000E+00  0.00000000000E+00  0.63664881285E+03  0.63664881285E+03  0.00000000000E+00 0.  1.
       -2   -1    0    0    0  501  0.00000000000E+00  0.00000000000E+00 -0.83747503908E+02  0.83747503908E+02  0.00000000000E+00 0. -1.
        6    1    1    2  502    0 -0.13635200666E+02  0.10000117001E+02  0.51355425929E+03  0.54217423240E+03  0.17300000000E+03 0.  1.
       -6    1    1    2    0  501  0.13635200666E+02 -0.10000117001E+02  0.39347049646E+02  0.17822208436E+03  0.17300000000E+03 0. -1.
</event>
<event>
 4   3  0.6181100E+00  0.2207317E+03  0.7957747E-01  0.1140123E+00
       21   -1    0    0  503  502  0.00000000000E+00  0.00000000000E+00  0.14630501941E+04  0.14630501941E+04  0.00000000000E+00 0. -1.
       21   -1    0    0  501  503  0.00000000000E+00  0.00000000000E+00 -0.46971300587E+02  0.46971300587E+02  0.00000000000E+00 0. -1.
        6    1    1    2  501    0 -0.69318091954E+02  0.11827298151E+03  0.30074357848E+03  0.37305387817E+03  0.17300000000E+03 0. -1.
       -6    1    1    2    0  502  0.69318091954E+02 -0.11827298151E+03  0.11153353150E+04  0.11369676165E+04  0.17300000000E+03 0. -1.
</event>
<event>
 6   2  0.6181100E+00  0.8386731E+02  0.7957747E-01  0.1317490E+00
        1   -1    0    0  502    0  0.00000000000E+00  0.00000000000E+00  0.19468205297E+02  0.19468205297E+02  0.00000000000E+00 0. -1.
       -2   -1    0    0    0  501  0.00000000000E+00  0.00000000000E+00 -0.15066299240E+03  0.15066299240E+03  0.00000000000E+00 0.  1.
      -24    2    1    2    0    0  0.21468027393E+02 -0.57466598751E+01 -0.11626868474E+03  0.14336015305E+03  0.80869191476E+02 0.  0.
       11    1    3    3    0    0  0.13087256967E+02  0.33868386396E+02 -0.26716433275E+02  0.45078949621E+02  0.00000000000E+00 0. -1.
      -12    1    3    3    0    0  0.83807704258E+01 -0.39615046271E+02 -0.89552251467E+02  0.98281203426E+02  0.00000000000E+00 0.  1.
       21    1    1    2  502  501 -0.21468027393E+02  0.57466598751E+01 -0.14926102358E+02  0.26771044646E+02  0.00000000000E+00 0.  1.
</event>
<event>
 5   1  0.6181100E+00  0.7961096E+02  0.7957747E-01  0.1328614E+00
        1   -1    0    0  501    0  0.00000000000E+00  0.00000000000E+00  0.13319195934E+03  0.13319195934E+03  0.00000000000E+00 0. -1.
       -2   -1    0    0    0  501  0.00000000000E+00  0.00000000000E+00 -0.11896184902E+02  0.11896184902E+02  0.00000000000E+00 0.  1.
      -24    2    1    2    0    0  0.00000000000E+00  0.00000000000E+00  0.12129577444E+03  0.14508814424E+03  0.79610958436E+02 0.  0.
       11    1    3    3    0    0 -0.19028185206E+02  0.30015232741E+02  0.27970832368E+02  0.45225584486E+02  0.00000000000E+00 0. -1.
      -12    1    3    3    0    0  0.19028185206E+02 -0.30015232741E+02  0.93324942068E+02  0.99862559754E+02  0.00000000000E+00 0.  1.
</event>
<event>
 5   1  0.6181100E+00  0.7653410E+02  0.7957747E-01  0.1337158E+00
        1   -1    0    0  501    0  0.00000000000E+00  0.00000000000E+00  0.13672224949E+02  0.13672224949E+02  0.00000000000E+00 0. -1.
       -2   -1    0    0    0  501  0.00000000000E+00  0.00000000000E+00 -0.10710524828E+03  0.10710524828E+03  0.00000000000E+00 0.  1.
      -24    2    1    2    0    0  0.00000000000E+00  0.00000000000E+00 -0.93433023329E+02  0.12077747323E+03  0.76534098222E+02 0.  0.
       11    1    3    3    0    0  0.28768349410E+02  0.18676463474E+02 -0.19938329635E+02  0.39673230324E+02  0.00000000000E+00 0. -1.
      -12    1    3    3    0    0 -0.28768349410E+02 -0.18676463474E+02 -0.73494693694E+02  0.81104242903E+02  0.00000000000E+00 0.  1.
</event>
<event>
 6   2  0.6181100E+00  0.1001454E+03  0.7957747E-01  0.1280961E+00
       -2   -1    0    0    0  501  0.00000000000E+00  0.00000000000E+00  0.17705679217E+03  0.17705679217E+03  0.00000000000E+00 0.  1.
       21   -1    0    0  501  502  0.00000000000E+00  0.00000000000E+00 -0.40067870056E+02  0.40067870056E+02  0.00000000000E+00 0. -1.
      -24    2    1    2    0    0 -0.48810413490E+02 -0.34827719054E+02  0.51246327140E+02  0.11249570317E+03  0.80210165862E+02 0.  0.
       11    1    3    3    0    0 -0.16668016968E+02 -0.94034158782E+01 -0.21633522252E+02  0.28883495371E+02  0.00000000000E+00 0. -1.
      -12    1    3    3    0    0 -0.32142396522E+02 -0.25424303176E+02  0.72879849393E+02  0.83612207803E+02  0.00000000000E+00 0.  1.
       -1    1    1    2    0  502  0.48810413490E+02  0.34827719054E+02  0.85742594977E+02  0.10462895905E+03  0.00000000000E+00 0.  1.
</event>
<event>
 5   1  0.6181100E+00  0.8971871E+02  0.7957747E-01  0.1303358E+00
       -2   -1    0    0    0  501  0.00000000000E+00  0.00000000000E+00  0.69982483434E+02  0.69982483434E+02  0.00000000000E+00 0.  1.
        1   -1    0    0  501    0  0.00000000000E+00  0.00000000000E+00 -0.28755220284E+02  0.28755220284E+02  0.00000000000E+00 0. -1.
      -24    2    1    2    0    0  0.00000000000E+00  0.00000000000E+00  0.41227263150E+02  0.98737703718E+02  0.89718709914E+02 0.  0.
       11    1    3    3    0    0 -0.37335193422E+02  0.19724274409E+02  0.39451948176E+01  0.42409058360E+02  0.00000000000E+00 0. -1.
      -12    1    3    3    0    0  0.37335193422E+02 -0.19724274409E+02  0.37282068332E+02  0.56328645359E+02  0.00000000000E+00 0.  1.
</event>
<event>
 5   1  0.6181100E+00  0.7675266E+02  0.7957747E-01  0.1336536E+00
       -2   -1    0    0    0  501  0.00000000000E+00  0.00000000000E+00  0.32992105551E+03  0.32992105551E+03  0.00000000000E+00 0.  1.
        1   -1    0    0  501    0  0.00000000000E+00  0.00000000000E+00 -0.44639251181E+01  0.44639251181E+01  0.00000000000E+00 0. -1.
      -24    2    1    2    0    0  0.00000000000E+00  0.00000000000E+00  0.32545713039E+03  0.33438498063E+03  0.76752664754E+02 0.  0.
       11    1    3    3    0    0 -0.17097759958E+02 -0.14128712468E+02  0.26288761031E+02  0.34395535585E+02  0.00000000000E+00 0. -1.
      -12    1    3    3    0    0  0.17097759958E+02  0.14128712468E+02  0.29916836936E+03  0.29998944504E+03  0.00000000000E+00 0.  1.
</event>
<event>
 6   2  0.6181100E+00  0.7459825E+02  0.7957747E-01  0.1342771E+00
       -4   -1    0    0    0  501  0.00000000000E+00  0.00000000000E+00  0.13301399154E+03  0.13301399154E+03  0.00000000000E+00 0.  1.
       21   -1    0    0  501  502  0.00000000000E+00  0.00000000000E+00 -0.29864619513E+02  0.29864619513E+02  0.00000000000E+00 0.  1.
      -24    2    1    2    0    0 -0.22533232288E+02  0.12536273952E+02  0.11289292953E+03  0.13531338596E+03  0.69999958278E+02 0.  0.
       11    1    3    3    0    0  0.15987285969E+02  0.79581135169E+01  0.21676129430E+01  0.17989536661E+02  0.00000000000E+00 0. -1.
      -12    1    3    3    0    0 -0.38520518258E+02  0.45781604347E+01  0.11072531659E+03  0.11732384930E+03  0.00000000000E+00 0.  1.
       -3    1    1    2    0  502  0.22533232288E+02 -0.12536273952E+02 -0.97435575025E+01  0.27565225099E+02  0.00000000000E+00 0.  1.
</event>
<event>
 5   1  0.6181100E+00  0.7998063E+02  0.7957747E-01  0.1327617E+00
       -4   -1    0    0    0  501  0.00000000000E+00  0.00000000000E+00  0.20825527486E+04  0.20825527486E+04  0.00000000000E+00 0.  1.
        3   -1    0    0  501    0  0.00000000000E+00  0.00000000000E+00 -0.76791595054E+00  0.76791595054E+00  0.00000000000E+00 0. -1.
      -24    2    1    2    0    0  0.00000000000E+00  0.00000000000E+00  0.20817848327E+04  0.20833206646E+04  0.79980634494E+02 0.  0.
       11    1    3    3    0    0  0.88379189024E+01 -0.10034714124E+02  0.59190032457E+02  0.60681663131E+02  0.00000000000E+00 0. -1.
      -12    1    3    3    0    0 -0.88379189024E+01  0.10034714124E+02  0.20225948002E+04  0.20226390014E+04  0.00000000000E+00 0.  1.
</event>
<event>
 5   1  0.6181100E+00  0.8012380E+02  0.7957747E-01  0.1327232E+00
        3   -1    0    0  501    0  0.00000000000E+00  0.00000000000E+00  0.11376159420E+03  0.11376159420E+03  0.00000000000E+00 0. -1.
       -4   -1    0    0    0  501  0.00000000000E+00  0.00000000000E+00 -0.14108064521E+02  0.14108064521E+02  0.00000000000E+00 0.  1.
      -24    2    1    2    0    0  0.00000000000E+00  0.00000000000E+00  0.99653529676E+02  0.12786965872E+03  0.80123801982E+02 0.  0.
       11    1    3    3    0    0 -0.29043098780E+02  0.27225819969E+02  0.42652474963E+02  0.58343641300E+02  0.00000000000E+00 0. -1.
      -12    1    3    3    0    0  0.29043098780E+02 -0.27225819969E+02  0.57001054713E+02  0.69526017419E+02  0.00000000000E+00 0.  1.
</event>
<event>
 6   2  0.6181100E+00  0.8809292E+02  0.7957747E-01  0.1307160E+00
        1   -1    0    0  502    0  0.00000000000E+00  0.00000000000E+00  0.14880120392E+02  0.14880120392E+02  0.00000000000E+00 0. -1.
       21   -1    0    0  501  502  0.00000000000E+00  0.00000000000E+00 -0.31181783795E+03  0.31181783795E+03  0.00000000000E+00 0.  1.
      -24    2    1    2    0    0  0.15644047524E+02  0.28010808059E+02 -0.27244813976E+03  0.28633608262E+03  0.82042804437E+02 0.  0.
       11    1    3    3    0    0  0.96415066245E+01 -0.47518435726E+01  0.10657221023E+01  0.10801593907E+02  0.00000000000E+00 0. -1.
      -12    1    3    3    0    0  0.60025408993E+01  0.32762651632E+02 -0.27351386186E+03  0.27553448871E+03  0.00000000000E+00 0.  1.
        2    1    1    2  501    0 -0.15644047524E+02 -0.28010808059E+02 -0.24489577798E+02  0.40361875722E+02  0.00000000000E+00 0. -1.
</event>
<event>
 5   1  0.6181100E+00  0.8149973E+02  0.7957747E-01  0.1323583E+00
       -2   -1    0    0    0  501  0.00000000000E+00  0.00000000000E+00  0.12181504686E+02  0.12181504686E+02  0.00000000000E+00 0.  1.
        1   -1    0    0  501    0  0.00000000000E+00  0.00000000000E+00 -0.13631742561E+03  0.13631742561E+03  0.00000000000E+00 0. -1.
      -24    2    1    2    0    0  0.00000000000E+00  0.00000000000E+00 -0.12413592092E+03  0.14849893029E+03  0.81499726597E+02 0.  0.
       11    1    3    3    0    0  0.60020780529E+01  0.26363179484E+02 -0.11761923355E+03  0.12068689355E+03  0.00000000000E+00 0. -1.
      -12    1    3    3    0    0 -0.60020780529E+01 -0.26363179484E+02 -0.65166873679E+01  0.27812036742E+02  0.00000000000E+00 0.  1.
</event>
<event>
 5   1  0.6181100E+00  0.8127051E+02  0.7957747E-01  0.1324185E+00
       -2   -1    0    0    0  501  0.00000000000E+00  0.00000000000E+00  0.82624292697E+01  0.82624292697E+01  0.00000000000E+00 0.  1.
        1   -1    0    0  501    0  0.00000000000E+00  0.00000000000E+00 -0.19984726172E+03  0.19984726172E+03  0.00000000000E+00 0. -1.
      -24    2    1    2    0    0  0.00000000000E+00  0.00000000000E+00 -0.19158483245E+03  0.20810969099E+03  0.81270507927E+02 0.  0.
       11    1    3    3    0    0 -0.29604229538E+02 -0.42301314848E+01 -0.16624292952E+03  0.16891126674E+03  0.00000000000E+00 0. -1.
      -12    1    3    3    0    0  0.29604229538E+02  0.42301314848E+01 -0.25341902931E+02  0.39198424242E+02  0.00000000000E+00 0.  1.
</event>
<event>
 5   1  0.6181100E+00  0.8246737E+02  0.7957747E-01  0.1321064E+00
        3   -1    0    0  501    0  0.00000000000E+00  0.00000000000E+00  0.11342067649E+03  0.11342067649E+03  0.00000000000E+00 0. -1.
       -4   -1    0    0    0  501  0.00000000000E+00  0.00000000000E+00 -0.14990359924E+02  0.14990359924E+02  0.00000000000E+00 0.  1.
      -24    2    1    2    0    0  0.00000000000E+00  0.00000000000E+00  0.98430316568E+02  0.12841103642E+03  0.82467369630E+02 0.  0.
       11    1    3    3    0    0 -0.29313996741E+01 -0.17668603974E+02  0.10704769744E+03  0.10853562640E+03  0.00000000000E+00 0. -1.
      -12    1    3    3    0    0  0.29313996741E+01  0.17668603974E+02 -0.86173808691E+01  0.19875410021E+02  0.00000000000E+00 0.  1.
</event>
<event>
 5   1  0.6181100E+00  0.8120581E+02  0.7957747E-01  0.1324355E+00
        1   -1    0    0  501    0  0.00000000000E+00  0.00000000000E+00  0.11969621138E+01  0.11969621138E+01  0.00000000000E+00 0. -1.
       -2   -1    0    0    0  501  0.00000000000E+00  0.00000000000E+00 -0.13773168253E+04  0.13773168253E+04  0.00000000000E+00 0.  1.
      -24    2    1    2    0    0  0.00000000000E+00  0.00000000000E+00 -0.13761198632E+04  0.13785137875E+04  0.81205814044E+02 0.  0.
       11    1    3    3    0    0 -0.14197179892E+02 -0.11781801441E+02 -0.74064328426E+02  0.76327554050E+02  0.00000000000E+00 0. -1.
      -12    1    3    3    0    0  0.14197179892E+02  0.11781801441E+02 -0.13020555348E+04  0.13021862334E+04  0.00000000000E+00 0.  1.
</event>
<event>
 6   2  0.6181100E+00  0.9258860E+02  0.7957747E-01  0.1296864E+00
       -2   -1    0    0    0  501  0.00000000000E+00  0.00000000000E+00  0.28099763151E+03  0.28099763151E+03  0.00000000000E+00 0.  1.
       21   -1    0    0  501  502  0.00000000000E+00  0.00000000000E+00 -0.26015606318E+02  0.26015606318E+02  0.00000000000E+00 0. -1.
      -24    2    1    2    0    0  0.21738430138E+02  0.39541779924E+02  0.68562978886E+02  0.11521080685E+03  0.80848848082E+02 0.  0.
       11    1    3    3    0    0  0.14334685762E+02  0.60157125374E+02  0.25491356811E+02  0.66889253406E+02  0.00000000000E+00 0. -1.
      -12    1    3    3    0    0  0.74037443757E+01 -0.20615345449E+02  0.43071622076E+02  0.48321553442E+02  0.00000000000E+00 0.  1.
       -1    1    1    2    0  502 -0.21738430138E+02 -0.39541779924E+02  0.18641904631E+03  0.19180243098E+03  0.00000000000E+00 0.  1.
</event>
<event>
 6   2  0.6181100E+00  0.8607830E+02  0.7957747E-01  0.1312001E+00
        3   -1    0    0  502    0  0.00000000000E+00  0.00000000000E+00  0.99134872754E+01  0.99134872754E+01  0.00000000000E+00 0. -1.
       21   -1    0    0  501  502  0.00000000000E+00  0.00000000000E+00 -0.36990311691E+03  0.36990311691E+03  0.00000000000E+00 0. -1.
      -24    2    1    2    0    0  0.24343042714E+02 -0.22501561119E+02 -0.22742143467E+03  0.24316657565E+03  0.79439099861E+02 0.  0.
       11    1    3    3    0    0  0.13652052662E+02 -0.90029311943E+01 -0.13157756638E+01  0.16406174983E+02  0.00000000000E+00 0. -1.
      -12    1    3    3    0    0  0.10690990052E+02 -0.13498629924E+02 -0.22610565900E+03  0.22676040067E+03  0.00000000000E+00 0.  1.
        4    1    1    2  501    0 -0.24343042714E+02  0.22501561119E+02 -0.13256819497E+03  0.13665002853E+03  0.00000000000E+00 0. -1.
</event>
<event>
 5   1  0.6181100E+00  0.8325383E+02  0.7957747E-01  0.1319046E+00
       -2   -1    0    0    0  501  0.00000000000E+00  0.00000000000E+00  0.17528449091E+02  0.17528449091E+02  0.00000000000E+00 0.  1.
        1   -1    0    0  501    0  0.00000000000E+00  0.00000000000E+00 -0.98856444288E+02  0.98856444288E+02  0.00000000000E+00 0. -1.
      -24    2    1    2    0    0  0.00000000000E+00  0.00000000000E+00 -0.81327995197E+02  0.11638489338E+03  0.83253832368E+02 0.  0.
       11    1    3    3    0    0  0.15422767448E+02 -0.28605956272E+02 -0.77027898210E+02  0.83602987941E+02  0.00000000000E+00 0. -1.
      -12    1    3    3    0    0 -0.15422767448E+02  0.28605956272E+02 -0.43000969873E+01  0.32781905438E+02  0.00000000000E+00 0.  1.
</event>
<event>
 5   1  0.6181100E+00  0.8460469E+02  0.7957747E-01  0.1315638E+00
        1   -1    0    0  501    0  0.00000000000E+00  0.00000000000E+00  0.67024029704E+01  0.67024029704E+01  0.00000000000E+00 0. -1.
       -2   -1    0    0    0  501  0.00000000000E+00  0.00000000000E+00 -0.26699204497E+03  0.26699204497E+03  0.00000000000E+00 0.  1.
      -24    2    1    2    0    0  0.00000000000E+00  0.00000000000E+00 -0.26028964200E+03  0.27369444794E+03  0.84604687230E+02 0.  0.
       11    1    3    3    0    0  0.11479796070E+02 -0.75167069479E+01 -0.69704867290E+00  0.13739449698E+02  0.00000000000E+00 0. -1.
      -12    1    3    3    0    0 -0.11479796070E+02  0.75167069479E+01 -0.25959259333E+03  0.25995499825E+03  0.00000000000E+00 0.  1.
</event>
<event>
 5   1  0.6181100E+00  0.8090772E+02  0.7957747E-01  0.1325143E+00
        3   -1    0    0  501    0  0.00000000000E+00  0.00000000000E+00  0.43872725805E+02  0.43872725805E+02  0.00000000000E+00 0. -1.
       -4   -1    0    0    0  501  0.00000000000E+00  0.00000000000E+00 -0.37301419007E+02  0.37301419007E+02  0.00000000000E+00 0.  1.
      -24    2    1    2    0    0  0.00000000000E+00  0.00000000000E+00  0.65713067979E+01  0.81174144812E+02  0.80907723444E+02 0.  0.
       11    1    3    3    0    0  0.10034893197E+02 -0.60809581644E+00  0.42599453374E+02  0.43769650327E+02  0.00000000000E+00 0. -1.
      -12    1    3    3    0    0 -0.10034893197E+02  0.60809581644E+00 -0.36028146576E+02  0.37404494485E+02  0.00000000000E+00 0.  1.
</event>
<event>
 6   2  0.6181100E+00  0.9722950E+02  0.7957747E-01  0.1286905E+00
       -2   -1    0    0    0  501  0.00000000000E+00  0.00000000000E+00  0.14791917628E+03  0.14791917628E+03  0.00000000000E+00 0.  1.
       21   -1    0    0  501  502  0.00000000000E+00  0.00000000000E+00 -0.85598312258E+02  0.85598312258E+02  0.00000000000E+00 0.  1.
      -24    2    1    2    0    0 -0.17847672105E+02 -0.49707761734E+02  0.12057011044E+03  0.15488940396E+03  0.81634398080E+02 0.  0.
       11    1    3    3    0    0 -0.13087606468E+02  0.19674111811E+02  0.13494544179E+02  0.27211373380E+02  0.00000000000E+00 0. -1.
      -12    1    3    3    0    0 -0.47600656368E+01 -0.69381873545E+02  0.10707556626E+03  0.12767803058E+03  0.00000000000E+00 0.  1.
       -1    1    1    2    0  502  0.17847672105E+02  0.49707761734E+02 -0.58249246421E+02  0.78628084580E+02  0.00000000000E+00 0.  1.
</event>
<event>
 6   2  0.6181100E+00  0.8903766E+02  0.7957747E-01  0.1304940E+00
       21   -1    0    0  501  502  0.00000000000E+00  0.00000000000E+00  0.18604639266E+02  0.18604639266E+02  0.00000000000E+00 0. -1.
        1   -1    0    0  502    0  0.00000000000E+00  0.00000000000E+00 -0.23066572038E+03  0.23066572038E+03  0.00000000000E+00 0. -1.
      -24    2    1    2    0    0 -0.39697926953E+02 -0.11636392584E+02 -0.15564017476E+03  0.17930858644E+03  0.78843986036E+02 0.  0.
       11    1    3    3    0    0 -0.61257364502E+02 -0.82581704775E+01 -0.13813075711E+03  0.15132999751E+03  0.00000000000E+00 0. -1.
      -12    1    3    3    0    0  0.21559437549E+02 -0.33782221061E+01 -0.17509417644E+02  0.27978588926E+02  0.00000000000E+00 0.  1.
        2    1    1    2  501    0  0.39697926953E+02  0.11636392584E+02 -0.56420906355E+02  0.69961773209E+02  0.00000000000E+00 0. -1.
</event>
<event>
 6   2  0.6181100E+00  0.1650423E+03  0.7957747E-01  0.1188182E+00
       21   -1    0    0  501  502  0.00000000000E+00  0.00000000000E+00  0.10438577891E+03  0.10438577891E+03  0.00000000000E+00 0.  1.
       -2   -1    0    0    0  501  0.00000000000E+00  0.00000000000E+00 -0.22957916479E+03  0.22957916479E+03  0.00000000000E+00 0.  1.
      -24    2    1    2    0    0 -0.59064150323E+02  0.13148163611E+03 -0.58037360305E+02  0.17494945308E+03  0.80392670402E+02 0.  0.
       11    1    3    3    0    0 -0.52649522547E+02  0.56729322948E+02 -0.62946524410E+02  0.99761982949E+02  0.00000000000E+00 0. -1.
      -12    1    3    3    0    0 -0.64146277753E+01  0.74752313161E+02  0.49091641045E+01  0.75187470131E+02  0.00000000000E+00 0.  1.
       -1    1    1    2    0  502  0.59064150323E+02 -0.13148163611E+03 -0.67156025575E+02  0.15901549062E+03  0.00000000000E+00 0.  1.
</event>
<event>
 6   2  0.6181100E+00  0.9370619E+02  0.7957747E-01  0.1294407E+00
       21   -1    0    0  501  502  0.00000000000E+00  0.00000000000E+00  0.17192573643E+04  0.17192573643E+04  0.00000000000E+00 0. -1.
        1   -1    0    0  502    0  0.00000000000E+00  0.00000000000E+00 -0.47171140340E+01  0.47171140340E+01  0.00000000000E+00 0. -1.
      -24    2    1    2    0    0  0.35150364526E+01 -0.46301015315E+02  0.50985165761E+03  0.51839132285E+03  0.81392329753E+02 0.  0.
       11    1    3    3    0    0 -0.23114674432E+02 -0.59610290669E+02  0.34889087529E+03  0.35470060303E+03  0.00000000000E+00 0. -1.
      -12    1    3    3    0    0  0.26629710884E+02  0.13309275355E+02  0.16096078231E+03  0.16369071982E+03  0.00000000000E+00 0.  1.
        2    1    1    2  501    0 -0.35150364526E+01  0.46301015315E+02  0.12046885926E+04  0.12055831555E+04  0.00000000000E+00 0. -1.
</event>
<event>
 5   1  0.6181100E+00  0.8070945E+02  0.7957747E-01  0.1325669E+00
        1   -1    0    0  501    0  0.00000000000E+00  0.00000000000E+00  0.38919673999E+02  0.38919673999E+02  0.00000000000E+00 0. -1.
       -2   -1    0    0    0  501  0.00000000000E+00  0.00000000000E+00 -0.41842684513E+02  0.41842684513E+02  0.00000000000E+00 0.  1.
      -24    2    1    2    0    0  0.00000000000E+00  0.00000000000E+00 -0.29230105145E+01  0.80762358512E+02  0.80709445308E+02 0.  0.
       11    1    3    3    0    0 -0.23427733141E+02  0.50851278382E+01  0.31021853795E+02  0.39205517700E+02  0.00000000000E+00 0. -1.
      -12    1    3    3    0    0  0.23427733141E+02 -0.50851278382E+01 -0.33944864310E+02  0.41556840812E+02  0.00000000000E+00 0.  1.
</event>
<event>
 5   1  0.6181100E+00  0.7523166E+02  0.7957747E-01  0.1340913E+00
       -2   -1    0    0    0  501  0.00000000000E+00  0.00000000000E+00  0.98909591754E+02  0.98909591754E+02  0.00000000000E+00 0.  1.
        1   -1    0    0  501    0  0.00000000000E+00  0.00000000000E+00 -0.14305494843E+02  0.14305494843E+02  0.00000000000E+00 0. -1.
      -24    2    1    2    0    0  0.00000000000E+00  0.00000000000E+00  0.84604096910E+02  0.11321508660E+03  0.75231659687E+02 0.  0.
       11    1    3    3    0    0  0.66341828263E+01  0.81093191612E+01 -0.12065331233E+02  0.15979538691E+02  0.00000000000E+00 0. -1.
      -12    1    3    3    0    0 -0.66341828263E+01 -0.81093191612E+01  0.96669428143E+02  0.97235547906E+02  0.00000000000E+00 0.  1.
</event>
<event>
 5   1  0.6181100E+00  0.7973767E+02  0.7957747E-01  0.1328272E+00
        3   -1    0    0  501    0  0.00000000000E+00  0.00000000000E+00  0.51177772802E+02  0.51177772802E+02  0.00000000000E+00 0. -1.
       -4   -1    0    0    0  501  0.00000000000E+00  0.00000000000E+00 -0.31058872371E+02  0.31058872371E+02  0.00000000000E+00 0.  1.
      -24    2    1    2    0    0  0.00000000000E+00  0.00000000000E+00  0.20118900431E+02  0.82236645173E+02  0.79737667728E+02 0.  0.
       11    1    3    3    0    0  0.90598075950E+01 -0.10858100350E+02  0.48504305961E+02  0.50523718723E+02  0.00000000000E+00 0. -1.
      -12    1    3    3    0    0 -0.90598075950E+01  0.10858100350E+02 -0.28385405530E+02  0.31712926449E+02  0.00000000000E+00 0.  1.
</event>
<event>
 5   1  0.6181100E+00  0.8188944E+02  0.7957747E-01  0.1322564E+00
        1   -1    0    0  501    0  0.00000000000E+00  0.00000000000E+00  0.13716407433E+03  0.13716407433E+03  0.00000000000E+00 0. -1.
       -2   -1    0    0    0  501  0.00000000000E+00  0.00000000000E+00 -0.12222369824E+02  0.12222369824E+02  0.00000000000E+00 0.  1.
      -24    2    1    2    0    0  0.00000000000E+00  0.00000000000E+00  0.12494170451E+03  0.14938644416E+03  0.81889438710E+02 0.  0.
       11    1    3    3    0    0  0.23017406955E+02  0.23857896326E+02  0.10630856990E+03  0.11135758741E+03  0.00000000000E+00 0. -1.
      -12    1    3    3    0    0 -0.23017406955E+02 -0.23857896326E+02  0.18633134611E+02  0.38028856747E+02  0.00000000000E+00 0.  1.
</event>
<event>
 5   1  0.6181100E+00  0.7327140E+02  0.7957747E-01  0.1346731E+00
       -2   -1    0    0    0  501  0.00000000000E+00  0.00000000000E+00  0.39487386811E+01  0.39487386811E+01  0.00000000000E+00 0.  1.
        1   -1    0    0  501    0  0.00000000000E+00  0.00000000000E+00 -0.33989957637E+03  0.33989957637E+03  0.00000000000E+00 0. -1.
      -24    2    1    2    0    0  0.00000000000E+00  0.00000000000E+00 -0.33595083769E+03  0.34384831505E+03  0.73271402467E+02 0.  0.
       11    1    3    3    0    0 -0.28121314950E+01  0.36177027119E+02 -0.19166791157E+03  0.19507248319E+03  0.00000000000E+00 0. -1.
      -12    1    3    3    0    0  0.28121314950E+01 -0.36177027119E+02 -0.14428292612E+03  0.14877583186E+03  0.00000000000E+00 0.  1.
</event>
<event>
 5   1  0.6181100E+00  0.7975119E+02  0.7957747E-01  0.1328235E+00
       -2   -1    0    0    0  501  0.00000000000E+00  0.00000000000E+00  0.16562480268E+03  0.16562480268E+03  0.00000000000E+00 0.  1.
        1   -1    0    0  501    0  0.00000000000E+00  0.00000000000E+00 -0.96003931397E+01  0.96003931397E+01  0.00000000000E+00 0. -1.
      -24    2    1    2    0    0  0.00000000000E+00  0.00000000000E+00  0.15602440954E+03  0.17522519582E+03  0.79751193582E+02 0.  0.
       11    1    3    3    0    0 -0.20062504502E+01  0.38977949752E+02  0.95964077386E+02  0.10359734435E+03  0.00000000000E+00 0. -1.
      -12    1    3    3    0    0  0.20062504502E+01 -0.38977949752E+02  0.60060332156E+02  0.71627851472E+02  0.00000000000E+00 0.  1.
</event>
<event>
 5   1  0.6181100E+00  0.7636227E+02  0.7957747E-01  0.1337649E+00
        3   -1    0    0  501    0  0.00000000000E+00  0.00000000000E+00  0.14541713408E+02  0.14541713408E+02  0.00000000000E+00 0. -1.
       -4   -1    0    0    0  501  0.00000000000E+00  0.00000000000E+00 -0.10024947787E+03  0.10024947787E+03  0.00000000000E+00 0.  1.
      -24    2    1    2    0    0  0.00000000000E+00  0.00000000000E+00 -0.85707764466E+02  0.11479119128E+03  0.76362272794E+02 0.  0.
       11    1    3    3    0    0  0.43563131358E+01 -0.28385987198E+02 -0.50312912127E+01  0.29155713413E+02  0.00000000000E+00 0. -1.
      -12    1    3    3    0    0 -0.43563131358E+01  0.28385987198E+02 -0.80676473253E+02  0.85635477869E+02  0.00000000000E+00 0.  1.
</event>
<event>
 6   2  0.6181100E+00  0.1120312E+03  0.7957747E-01  0.1258893E+00
        1   -1    0    0  502    0  0.00000000000E+00  0.00000000000E+00  0.28374148899E+03  0.28374148899E+03  0.00000000000E+00 0. -1.
       -2   -1    0    0    0  501  0.00000000000E+00  0.00000000000E+00 -0.54638550648E+02  0.54638550648E+02  0.00000000000E+00 0.  1.
      -24    2    1    2    0    0 -0.16315277630E+02 -0.78950245779E+02  0.19379112140E+02  0.11369489801E+03  0.77792353434E+02 0.  0.
       11    1    3    3    0    0 -0.20968194725E+02 -0.33518636350E+02  0.46140210798E+02  0.60762514968E+02  0.00000000000E+00 0. -1.
      -12    1    3    3    0    0  0.46529170947E+01 -0.45431609429E+02 -0.26761098658E+02  0.52932383039E+02  0.00000000000E+00 0.  1.
       21    1    1    2  502  501  0.16315277630E+02  0.78950245779E+02  0.20972382621E+03  0.22468514163E+03  0.00000000000E+00 0. -1.
</event>
<event>
 5   1  0.6181100E+00  0.8008310E+02  0.7957747E-01  0.1327342E+00
        1   -1    0    0  501    0  0.00000000000E+00  0.00000000000E+00  0.66669409865E+02  0.66669409865E+02  0.00000000000E+00 0. -1.
       -2   -1    0    0    0  501  0.00000000000E+00  0.00000000000E+00 -0.24048897591E+02  0.24048897591E+02  0.00000000000E+00 0.  1.
      -24    2    1    2    0    0  0.00000000000E+00  0.00000000000E+00  0.42620512274E+02  0.90718307456E+02  0.80083102095E+02 0.  0.
       11    1    3    3    0    0  0.35470216859E+02  0.14137474796E+02  0.34966106123E+02  0.51774830324E+02  0.00000000000E+00 0. -1.
      -12    1    3    3    0    0 -0.35470216859E+02 -0.14137474796E+02  0.76544061512E+01  0.38943477132E+02  0.00000000000E+00 0.  1.
</event>
<event>
 5   1  0.6181100E+00  0.8054362E+02  0.7957747E-01  0.1326110E+00
        1   -1    0    0  501    0  0.00000000000E+00  0.00000000000E+00  0.12802023016E+03  0.12802023016E+03  0.00000000000E+00 0. -1.
       -2   -1    0    0    0  501  0.00000000000E+00  0.00000000000E+00 -0.12668456858E+02  0.12668456858E+02  0.00000000000E+00 0.  1.
      -24    2    1    2    0    0  0.00000000000E+00  0.00000000000E+00  0.11535177330E+03  0.14068868702E+03  0.80543622038E+02 0.  0.
       11    1    3    3    0    0 -0.24839921580E+02  0.80411222212E+01  0.11123380495E+03  0.11425690664E+03  0.00000000000E+00 0. -1.
      -12    1    3    3    0    0  0.24839921580E+02 -0.80411222212E+01  0.41179683507E+01  0.26431780379E+02  0.00000000000E+00 0.  1.
</event>
<event>
 6   2  0.6181100E+00  0.9268531E+02  0.7957747E-01  0.1296650E+00
       -2   -1    0    0    0  501  0.00000000000E+00  0.00000000000E+00  0.12161474163E+03  0.12161474163E+03  0.00000000000E+00 0.  1.
        1   -1    0    0  502    0  0.00000000000E+00  0.00000000000E+00 -0.49377312451E+02  0.49377312451E+02  0.00000000000E+00 0. -1.
      -24    2    1    2    0    0  0.15695819019E+02 -0.47634387831E+02  0.13350662817E+02  0.93641909339E+02  0.77943398363E+02 0.  0.
       11    1    3    3    0    0 -0.52168726881E+01 -0.20219374427E+02 -0.31054027387E+02  0.37421804871E+02  0.00000000000E+00 0. -1.
      -12    1    3    3    0    0  0.20912691707E+02 -0.27415013404E+02  0.44404690203E+02  0.56220104469E+02  0.00000000000E+00 0.  1.
       21    1    1    2  502  501 -0.15695819019E+02  0.47634387831E+02  0.58886766358E+02  0.77350144737E+02  0.00000000000E+00 0.  1.
</event>
<event>
 5   1  0.6181100E+00  0.8037187E+02  0.7957747E-01  0.1326568E+00
       -2   -1    0    0    0  501  0.00000000000E+00  0.00000000000E+00  0.10833818940E+02  0.10833818940E+02  0.00000000000E+00 0.  1.
        1   -1    0    0  501    0  0.00000000000E+00  0.00000000000E+00 -0.14906185918E+03  0.14906185918E+03  0.00000000000E+00 0. -1.
      -24    2    1    2    0    0  0.00000000000E+00  0.00000000000E+00 -0.13822804024E+03  0.15989567812E+03  0.80371865557E+02 0.  0.
       11    1    3    3    0    0  0.38460444974E+02  0.10892195889E+02 -0.60896024615E+02  0.72843473097E+02  0.00000000000E+00 0. -1.
      -12    1    3    3    0    0 -0.38460444974E+02 -0.10892195889E+02 -0.77332015624E+02  0.87052205023E+02  0.00000000000E+00 0.  1.
</event>
<event>
 5   1  0.6181100E+00  0.7591950E+02  0.7957747E-01  0.1338920E+00
        3   -1    0    0  501    0  0.00000000000E+00  0.00000000000E+00  0.34199416810E+01  0.34199416810E+01  0.00000000000E+00 0. -1.
       -4   -1    0    0    0  501  0.00000000000E+00  0.00000000000E+00 -0.42133541837E+03  0.42133541837E+03  0.00000000000E+00 0.  1.
      -24    2    1    2    0    0  0.00000000000E+00  0.00000000000E+00 -0.41791547668E+03  0.42475536005E+03  0.75919498390E+02 0.  0.
       11    1    3    3    0    0  0.17604276641E+02  0.77337557903E+01 -0.25842249000E+02  0.32210920013E+02  0.00000000000E+00 0. -1.
      -12    1    3    3    0    0 -0.17604276641E+02 -0.77337557903E+01 -0.39207322768E+03  0.39254444003E+03  0.00000000000E+00 0.  1.
</event>
<event>
 5   1  0.6181100E+00  0.8096823E+02  0.7957747E-01  0.1324983E+00
        1   -1    0    0  501    0  0.00000000000E+00  0.00000000000E+00  0.33896532886E+02  0.33896532886E+02  0.00000000000E+00 0. -1.
       -2   -1    0    0    0  501  0.00000000000E+00  0.00000000000E+00 -0.48351959026E+02  0.48351959026E+02  0.00000000000E+00 0.  1.
      -24    2    1    2    0    0  0.00000000000E+00  0.00000000000E+00 -0.14455426140E+02  0.82248491911E+02  0.80968234986E+02 0.  0.
       11    1    3    3    0    0  0.23854257946E+02  0.29973748570E+02  0.60756430008E+01  0.38786140094E+02  0.00000000000E+00 0. -1.
      -12    1    3    3    0    0 -0.23854257946E+02 -0.29973748570E+02 -0.20531069141E+02  0.43462351818E+02  0.00000000000E+00 0.  1.
</event>
<event>
 5   1  0.6181100E+00  0.7632199E+02  0.7957747E-01  0.1337764E+00
        1   -1    0    0  501    0  0.00000000000E+00  0.00000000000E+00  0.96239783193E+02  0.96239783193E+02  0.00000000000E+00 0. -1.
       -2   -1    0    0    0  501  0.00000000000E+00  0.00000000000E+00 -0.15131594503E+02  0.15131594503E+02  0.00000000000E+00 0.  1.
      -24    2    1    2    0    0  0.00000000000E+00  0.00000000000E+00  0.81108188690E+02  0.11137137770E+03  0.76321985674E+02 0.  0.
       11    1    3    3    0    0  0.80909424478E+01  0.16264192454E+02  0.89525883793E+02  0.91350266419E+02  0.00000000000E+00 0. -1.
      -12    1    3    3    0    0 -0.80909424478E+01 -0.16264192454E+02 -0.84176951034E+01  0.20021111276E+02  0.00000000000E+00 0.  1.
</event>
<event>
 5   1  0.6181100E+00  0.8066249E+02  0.7957747E-01  0.1325794E+00
        3   -1    0    0  501    0  0.00000000000E+00  0.00000000000E+00  0.55279578536E+01  0.55279578536E+01  0.00000000000E+00 0. -1.
       -4   -1    0    0    0  501  0.00000000000E+00  0.00000000000E+00 -0.29425136909E+03  0.29425136909E+03  0.00000000000E+00 0.  1.
      -24    2    1    2    0    0  0.00000000000E+00  0.00000000000E+00 -0.28872341123E+03  0.29977932694E+03  0.80662486118E+02 0.  0.
       11    1    3    3    0    0  0.12255706766E+02  0.18986669505E+02 -0.20212117194E+02  0.30318734286E+02  0.00000000000E+00 0. -1.
      -12    1    3    3    0    0 -0.12255706766E+02 -0.18986669505E+02 -0.26851129404E+03  0.26946059265E+03  0.00000000000E+00 0.  1.
</event>
<event>
 5   1  0.6181100E+00  0.8095273E+02  0.7957747E-01  0.1325024E+00
        3   -1    0    0  501    0  0.00000000000E+00  0.00000000000E+00  0.74747208728E+01  0.74747208728E+01  0.00000000000E+00 0. -1.
       -4   -1    0    0    0  501  0.00000000000E+00  0.00000000000E+00 -0.21918360984E+03  0.21918360984E+03  0.00000000000E+00 0.  1.
      -24    2    1    2    0    0  0.00000000000E+00  0.00000000000E+00 -0.21170888897E+03  0.22665833072E+03  0.80952734444E+02 0.  0.
       11    1    3    3    0    0 -0.32401097907E+02  0.10786191496E+02 -0.45014859217E+02  0.56502306350E+02  0.00000000000E+00 0. -1.
      -12    1    3    3    0    0  0.32401097907E+02 -0.10786191496E+02 -0.16669402975E+03  0.17015602437E+03  0.00000000000E+00 0.  1.
</event>
<event>
 5   1  0.6181100E+00  0.7811992E+02  0.7957747E-01  0.1332699E+00
       -2   -1    0    0    0  501  0.00000000000E+00  0.00000000000E+00  0.41799068985E+03  0.41799068985E+03  0.00000000000E+00 0.  1.
        1   -1    0    0  501    0  0.00000000000E+00  0.00000000000E+00 -0.36500344508E+01  0.36500344508E+01  0.00000000000E+00 0. -1.
      -24    2    1    2    0    0  0.00000000000E+00  0.00000000000E+00  0.41434065540E+03  0.42164072430E+03  0.78119918537E+02 0.  0.
       11    1    3    3    0    0 -0.38602269007E+02 -0.16475654577E+01  0.17624450034E+03  0.18042996853E+03  0.00000000000E+00 0. -1.
      -12    1    3    3    0    0  0.38602269007E+02  0.16475654577E+01  0.23809615506E+03  0.24121075577E+03  0.00000000000E+00 0.  1.
</event>
<event>
 4   3  0.6181100E+00  0.1746424E+03  0.7957747E-01  0.1178522E+00
       -2   -1    0    0    0  501  0.00000000000E+00  0.00000000000E+00  0.45201186915E+02  0.45201186915E+02  0.00000000000E+00 0.  1.
        2   -1    0    0  502    0  0.00000000000E+00  0.00000000000E+00 -0.68580438172E+03  0.68580438172E+03  0.00000000000E+00 0. -1.
        6    1    1    2  502    0  0.23889564812E+02  0.50227736435E+00 -0.27391883512E+03  0.32485610941E+03  0.17300000000E+03 0. -1.
       -6    1    1    2    0  501 -0.23889564812E+02 -0.50227736435E+00 -0.36668435968E+03  0.40614945922E+03  0.17300000000E+03 0. -1.
</event>
<event>
 6   2  0.6181100E+00  0.8626756E+02  0.7957747E-01  0.1311540E+00
        1   -1    0    0  502    0  0.00000000000E+00  0.00000000000E+00  0.83908723731E+03  0.83908723731E+03  0.00000000000E+00 0. -1.
       -2   -1    0    0    0  501  0.00000000000E+00  0.00000000000E+00 -0.52964167501E+01  0.52964167501E+01  0.00000000000E+00 0.  1.
      -24    2    1    2    0    0 -0.14718718411E+02 -0.22905703729E+02  0.37538966839E+03  0.38517462949E+03  0.81858293011E+02 0.  0.
       11    1    3    3    0    0 -0.28327167334E+02 -0.45799391892E+02  0.30872962726E+03  0.31339112217E+03  0.00000000000E+00 0. -1.
      -12    1    3    3    0    0  0.13608448923E+02  0.22893688164E+02  0.66660041124E+02  0.71783507316E+02  0.00000000000E+00 0.  1.
       21    1    1    2  502  501  0.14718718411E+02  0.22905703729E+02  0.45840115217E+03  0.45920902457E+03  0.00000000000E+00 0.  1.
</event>
<event>
 6   2  0.6181100E+00  0.8505220E+02  0.7957747E-01  0.1314525E+00
       21   -1    0    0  501  502  0.00000000000E+00  0.00000000000E+00  0.37833627718E+03  0.37833627718E+03  0.00000000000E+00 0. -1.
        3   -1    0    0  502    0  0.00000000000E+00  0.00000000000E+00 -0.10802432798E+02  0.10802432798E+02  0.00000000000E+00 0. -1.
      -24    2    1    2    0    0 -0.24996318854E+02 -0.25020006198E+02  0.19076191172E+03  0.20886355128E+03  0.77350238684E+02 0.  0.
       11    1    3    3    0    0 -0.33669732577E+02  0.85575204914E+00  0.27913121567E+02  0.43743863101E+02  0.00000000000E+00 0. -1.
      -12    1    3    3    0    0  0.86734137232E+01 -0.25875758247E+02  0.16284879015E+03  0.16511968818E+03  0.00000000000E+00 0.  1.
        4    1    1    2  501    0  0.24996318854E+02  0.25020006198E+02  0.17677193266E+03  0.18027515870E+03  0.00000000000E+00 0. -1.
</event>
<event>
 5   1  0.6181100E+00  0.8000473E+02  0.7957747E-01  0.1327552E+00
       -2   -1    0    0    0  501  0.00000000000E+00  0.00000000000E+00  0.89037864714E+01  0.89037864714E+01  0.00000000000E+00 0.  1.
        1   -1    0    0  501    0  0.00000000000E+00  0.00000000000E+00 -0.17972008620E+03  0.17972008620E+03  0.00000000000E+00 0. -1.
      -24    2    1    2    0    0  0.00000000000E+00  0.00000000000E+00 -0.17081629973E+03  0.18862387267E+03  0.80004731664E+02 0.  0.
       11    1    3    3    0    0 -0.28717741196E+02  0.87282896909E+01 -0.14775463784E+03  0.15077242687E+03  0.00000000000E+00 0. -1.
      -12    1    3    3    0    0  0.28717741196E+02 -0.87282896909E+01 -0.23061661888E+02  0.37851445803E+02  0.00000000000E+00 0.  1.
</event>
<event>
 5   1  0.6181100E+00  0.6701326E+02  0.7957747E-01  0.1366783E+00
        3   -1    0    0  501    0  0.00000000000E+00  0.00000000000E+00  0.12065731253E+02  0.12065731253E+02  0.00000000000E+00 0. -1.
       -4   -1    0    0    0  501  0.00000000000E+00  0.00000000000E+00 -0.93048183192E+02  0.93048183192E+02  0.00000000000E+00 0.  1.
      -24    2    1    2    0    0  0.00000000000E+00  0.00000000000E+00 -0.80982451940E+02  0.10511391445E+03  0.67013263522E+02 0.  0.
       11    1    3    3    0    0 -0.32422406109E+02  0.84363036670E+01 -0.41365593855E+02  0.53230592636E+02  0.00000000000E+00 0. -1.
      -12    1    3    3    0    0  0.32422406109E+02 -0.84363036670E+01 -0.39616858085E+02  0.51883321809E+02  0.00000000000E+00 0.  1.
</event>
<event>
 4   3  0.6181100E+00  0.2230735E+03  0.7957747E-01  0.1138452E+00
       21   -1    0    0  501  502  0.00000000000E+00  0.00000000000E+00  0.49402703136E+02  0.49402703136E+02  0.00000000000E+00 0. -1.
       21   -1    0    0  502  503  0.00000000000E+00  0.00000000000E+00 -0.17326459054E+04  0.17326459054E+04  0.00000000000E+00 0. -1.
        6    1    1    2  501    0  0.65554463791E+01 -0.14067631986E+03 -0.26509869374E+03  0.34646661927E+03  0.17300000000E+03 0. -1.
       -6    1    1    2    0  503 -0.65554463791E+01  0.14067631986E+03 -0.14181445085E+04  0.14355819893E+04  0.17300000000E+03 0. -1.
</event>
<event>
 5   1  0.6181100E+00  0.8044019E+02  0.7957747E-01  0.1326386E+00
        3   -1    0    0  501    0  0.00000000000E+00  0.00000000000E+00  0.12610230607E+02  0.12610230607E+02  0.00000000000E+00 0. -1.
       -4   -1    0    0    0  501  0.00000000000E+00  0.00000000000E+00 -0.12828125071E+03  0.12828125071E+03  0.00000000000E+00 0.  1.
      -24    2    1    2    0    0  0.00000000000E+00  0.00000000000E+00 -0.11567102011E+03  0.14089148132E+03  0.80440192792E+02 0.  0.
       11    1    3    3    0    0  0.25708186619E+02 -0.25418239011E+02 -0.26964332374E+02  0.45100697933E+02  0.00000000000E+00 0. -1.
      -12    1    3    3    0    0 -0.25708186619E+02  0.25418239011E+02 -0.88706687733E+02  0.95790783389E+02  0.00000000000E+00 0.  1.
</event>
<event>
 4   3  0.6181100E+00  0.1853917E+03  0.7957747E-01  0.1168485E+00
       21   -1    0    0  501  502  0.00000000000E+00  0.00000000000E+00  0.79920464804E+02  0.79920464804E+02  0.00000000000E+00 0. -1.
       21   -1    0    0  502  503  0.00000000000E+00  0.00000000000E+00 -0.58028627388E+03  0.58028627388E+03  0.00000000000E+00 0. -1.
        6    1    1    2  501    0  0.15546099127E+02  0.64802759368E+02 -0.82220882921E+02  0.20280619421E+03  0.17300000000E+03 0. -1.
       -6    1    1    2    0  503 -0.15546099127E+02 -0.64802759368E+02 -0.41814492615E+03  0.45740054448E+03  0.17300000000E+03 0. -1.
</event>
<event>
 5   1  0.6181100E+00  0.8038760E+02  0.7957747E-01  0.1326526E+00
       -2   -1    0    0    0  501  0.00000000000E+00  0.00000000000E+00  0.20386322615E+02  0.20386322615E+02  0.00000000000E+00 0.  1.
        1   -1    0    0  501    0  0.00000000000E+00  0.00000000000E+00 -0.79246338031E+02  0.79246338031E+02  0.00000000000E+00 0. -1.
      -24    2    1    2    0    0  0.00000000000E+00  0.00000000000E+00 -0.58860015417E+02  0.99632660646E+02  0.80387596385E+02 0.  0.
       11    1    3    3    0    0 -0.21700314468E+02 -0.17098196827E+02 -0.65613146337E+02  0.71192253476E+02  0.00000000000E+00 0. -1.
      -12    1    3    3    0    0  0.21700314468E+02  0.17098196827E+02  0.67531309209E+01  0.28440407170E+02  0.00000000000E+00 0.  1.
</event>
<event>
 6   2  0.6181100E+00  0.1169980E+03  0.7957747E-01  0.1250560E+00
       21   -1    0    0  501  502  0.00000000000E+00  0.00000000000E+00  0.29680768017E+02  0.29680768017E+02  0.00000000000E+00 0. -1.
       -2   -1    0    0    0  501  0.00000000000E+00  0.00000000000E+00 -0.10356246214E+04  0.10356246214E+04  0.00000000000E+00 0.  1.
      -24    2    1    2    0    0 -0.83846777792E+02 -0.10057345634E+02 -0.95699197397E+02  0.15115181036E+03  0.80975928805E+02 0.  0.
       11    1    3    3    0    0 -0.37086726756E+02 -0.19477710276E+02  0.25164409950E+01  0.41965926349E+02  0.00000000000E+00 0. -1.
      -12    1    3    3    0    0 -0.46760051037E+02  0.94203646420E+01 -0.98215638392E+02  0.10918588401E+03  0.00000000000E+00 0.  1.
       -1    1    1    2    0  502  0.83846777792E+02  0.10057345634E+02 -0.91024465601E+03  0.91415357908E+03  0.00000000000E+00 0.  1.
</event>
<event>
 6   2  0.6181100E+00  0.8532513E+02  0.7957747E-01  0.1313850E+00
        1   -1    0    0  502    0  0.00000000000E+00  0.00000000000E+00  0.12592226675E+03  0.12592226675E+03  0.00000000000E+00 0. -1.
       -2   -1    0    0    0  501  0.00000000000E+00  0.00000000000E+00 -0.23558440777E+02  0.23558440777E+02  0.00000000000E+00 0.  1.
      -24    2    1    2    0    0  0.13843199980E+02  0.16584558668E+02  0.92144758110E+02  0.12558277624E+03  0.82545111716E+02 0.  0.
       11    1    3    3    0    0  0.25920668185E+01 -0.23600798178E+02  0.77978763822E+02  0.81513214219E+02  0.00000000000E+00 0. -1.
      -12    1    3    3    0    0  0.11251133161E+02  0.40185356846E+02  0.14165994288E+02  0.44069562018E+02  0.00000000000E+00 0.  1.
       21    1    1    2  502  501 -0.13843199980E+02 -0.16584558668E+02  0.10219067859E+02  0.23897931287E+02  0.00000000000E+00 0. -1.
</event>
<event>
 5   1  0.6181100E+00  0.8184083E+02  0.7957747E-01  0.1322690E+00
       -2   -1    0    0    0  501  0.00000000000E+00  0.00000000000E+00  0.83066325739E+02  0.83066325739E+02  0.00000000000E+00 0.  1.
        1   -1    0    0  501    0  0.00000000000E+00  0.00000000000E+00 -0.20158354234E+02  0.20158354234E+02  0.00000000000E+00 0. -1.
      -24    2    1    2    0    0  0.00000000000E+00  0.00000000000E+00  0.62907971505E+02  0.10322467997E+03  0.81840831354E+02 0.  0.
       11    1    3    3    0    0 -0.39703268487E+02  0.98710399595E+01  0.32504312585E+02  0.52252438173E+02  0.00000000000E+00 0. -1.
      -12    1    3    3    0    0  0.39703268487E+02 -0.98710399595E+01  0.30403658920E+02  0.50972241800E+02  0.00000000000E+00 0.  1.
</event>
<event>
 5   1  0.6181100E+00  0.7900311E+02  0.7957747E-01  0.1330267E+00
       -4   -1    0    0    0  501  0.00000000000E+00  0.00000000000E+00  0.49363072140E+03  0.49363072140E+03  0.00000000000E+00 0.  1.
        3   -1    0    0  501    0  0.00000000000E+00  0.00000000000E+00 -0.31610127751E+01  0.31610127751E+01  0.00000000000E+00 0. -1.
      -24    2    1    2    0    0  0.00000000000E+00  0.00000000000E+00  0.49046970863E+03  0.49679173418E+03  0.79003114281E+02 0.  0.
       11    1    3    3    0    0 -0.90134706636E+01  0.29368546807E+02  0.89086094838E+02  0.94234210818E+02  0.00000000000E+00 0. -1.
      -12    1    3    3    0    0  0.90134706636E+01 -0.29368546807E+02  0.40138361379E+03  0.40255752336E+03  0.00000000000E+00 0.  1.
</event>
<event>
 5   1  0.6181100E+00  0.7522870E+02  0.7957747E-01  0.1340922E+00
        1   -1    0    0  501    0  0.00000000000E+00  0.00000000000E+00  0.82947655104E+02  0.82947655104E+02  0.00000000000E+00 0. -1.
       -2   -1    0    0    0  501  0.00000000000E+00  0.00000000000E+00 -0.17057015825E+02  0.17057015825E+02  0.00000000000E+00 0.  1.
      -24    2    1    2    0    0  0.00000000000E+00  0.00000000000E+00  0.65890639279E+02  0.10000467093E+03  0.75228703717E+02 0.  0.
       11    1    3    3    0    0  0.14068831678E+02 -0.27476061971E+02  0.61517620837E+02  0.68827928050E+02  0.00000000000E+00 0. -1.
      -12    1    3    3    0    0 -0.14068831678E+02  0.27476061971E+02  0.43730184419E+01  0.31176742878E+02  0.00000000000E+00 0.  1.
</event>
<event>
 6   2  0.6181100E+00  0.8460169E+02  0.7957747E-01  0.1315646E+00
       21   -1    0    0  501  502  0.00000000000E+00  0.00000000000E+00  0.25494570795E+02  0.25494570795E+02  0.00000000000E+00 0.  1.
        1   -1    0    0  502    0  0.00000000000E+00  0.00000000000E+00 -0.19271732384E+03  0.19271732384E+03  0.00000000000E+00 0. -1.
      -24    2    1    2    0    0 -0.29377667886E+02  0.92710213248E+01 -0.52825848647E+02  0.99739742031E+02  0.78793696755E+02 0.  0.
       11    1    3    3    0    0 -0.56248581766E+02  0.65124002673E+00 -0.37756081419E+02  0.67748422479E+02  0.00000000000E+00 0. -1.
      -12    1    3    3    0    0  0.26870913880E+02  0.86197812981E+01 -0.15069767228E+02  0.31991319552E+02  0.00000000000E+00 0.  1.
        2    1    1    2  501    0  0.29377667886E+02 -0.92710213248E+01 -0.11439690440E+03  0.11847215260E+03  0.00000000000E+00 0. -1.
</event>
<event>
 5   1  0.6181100E+00  0.6937005E+02  0.7957747E-01  0.1358949E+00
       -2   -1    0    0    0  501  0.00000000000E+00  0.00000000000E+00  0.16804717329E+02  0.16804717329E+02  0.00000000000E+00 0.  1.
        1   -1    0    0  501    0  0.00000000000E+00  0.00000000000E+00 -0.71590083928E+02  0.71590083928E+02  0.00000000000E+00 0. -1.
      -24    2    1    2    0    0  0.00000000000E+00  0.00000000000E+00 -0.54785366599E+02  0.88394801257E+02  0.69370054750E+02 0.  0.
       11    1    3    3    0    0 -0.32916801386E+02 -0.85266006973E+01 -0.36112911540E+02  0.49602027306E+02  0.00000000000E+00 0. -1.
      -12    1    3    3    0    0  0.32916801386E+02  0.85266006973E+01 -0.18672455059E+02  0.38792773952E+02  0.00000000000E+00 0.  1.
</event>
<event>
 4   3  0.6181100E+00  0.1752524E+03  0.7957747E-01  0.1177931E+00
       21   -1    0    0  503  502  0.00000000000E+00  0.00000000000E+00  0.10077956378E+04  0.10077956378E+04  0.00000000000E+00 0. -1.
       21   -1    0    0  501  503  0.00000000000E+00  0.00000000000E+00 -0.40997873152E+02  0.40997873152E+02  0.00000000000E+00 0. -1.
        6    1    1    2  501    0  0.14020878107E+01  0.27971986423E+02  0.21773678937E+03  0.27950439589E+03  0.17300000000E+03 0. -1.
       -6    1    1    2    0  502 -0.14020878107E+01 -0.27971986423E+02  0.74906097526E+03  0.76928911505E+03  0.17300000000E+03 0. -1.
</event>
<event>
 5   1  0.6181100E+00  0.8056844E+02  0.7957747E-01  0.1326044E+00
       -4   -1    0    0    0  501  0.00000000000E+00  0.00000000000E+00  0.22412534520E+02  0.22412534520E+02  0.00000000000E+00 0.  1.
        3   -1    0    0  501    0  0.00000000000E+00  0.00000000000E+00 -0.72406734863E+02  0.72406734863E+02  0.00000000000E+00 0. -1.
      -24    2    1    2    0    0  0.00000000000E+00  0.00000000000E+00 -0.49994200343E+02  0.94819269384E+02  0.80568441579E+02 0.  0.
       11    1    3    3    0    0 -0.40172655459E+02 -0.28517627970E+01 -0.23916134237E+02  0.46839686960E+02  0.00000000000E+00 0. -1.
      -12    1    3    3    0    0  0.40172655459E+02  0.28517627970E+01 -0.26078066107E+02  0.47979582424E+02  0.00000000000E+00 0.  1.
</event>
<event>
 6   2  0.6181100E+00  0.8289763E+02  0.7957747E-01  0.1319957E+00
       21   -1    0    0  501  502  0.00000000000E+00  0.00000000000E+00  0.92654700181E+01  0.92654700181E+01  0.00000000000E+00 0. -1.
        1   -1    0    0  502    0  0.00000000000E+00  0.00000000000E+00 -0.13253644045E+04  0.13253644045E+04  0.00000000000E+00 0. -1.
      -24    2    1    2    0    0  0.68461965165E+01 -0.22919044382E+02 -0.17883172412E+03  0.19711114467E+03  0.79371687631E+02 0.  0.
       11    1    3    3    0    0  0.31403378519E+02 -0.80114004115E+01 -0.25850818970E+02  0.41456236688E+02  0.00000000000E+00 0. -1.
      -12    1    3    3    0    0 -0.24557182002E+02 -0.14907643970E+02 -0.15298090515E+03  0.15565490798E+03  0.00000000000E+00 0.  1.
        2    1    1    2  501    0 -0.68461965165E+01  0.22919044382E+02 -0.11372672104E+04  0.11375187299E+04  0.00000000000E+00 0. -1.
</event>
<event>
 5   1  0.6181100E+00  0.8025136E+02  0.7957747E-01  0.1326891E+00
       -2   -1    0    0    0  501  0.00000000000E+00  0.00000000000E+00  0.13551020234E+03  0.13551020234E+03  0.00000000000E+00 0.  1.
        1   -1    0    0  501    0  0.00000000000E+00  0.00000000000E+00 -0.11881542853E+02  0.11881542853E+02  0.00000000000E+00 0. -1.
      -24    2    1    2    0    0  0.00000000000E+00  0.00000000000E+00  0.12362865949E+03  0.14739174520E+03  0.80251362012E+02 0.  0.
       11    1    3    3    0    0 -0.13157257647E+02  0.16272675249E+01 -0.77428697211E+01  0.15352962577E+02  0.00000000000E+00 0. -1.
      -12    1    3    3    0    0  0.13157257647E+02 -0.16272675249E+01  0.13137152921E+03  0.13203878262E+03  0.00000000000E+00 0.  1.
</event>
<event>
 6   2  0.6181100E+00  0.8449608E+02  0.7957747E-01  0.1315909E+00
        3   -1    0    0  502    0  0.00000000000E+00  0.00000000000E+00  0.68886459393E+03  0.68886459393E+03  0.00000000000E+00 0. -1.
       21   -1    0    0  501  502  0.00000000000E+00  0.00000000000E+00 -0.73384715446E+01  0.73384715446E+01  0.00000000000E+00 0. -1.
      -24    2    1    2    0    0 -0.13216183247E+02  0.26406046211E+02  0.25455947204E+03  0.26821653848E+03  0.79168427648E+02 0.  0.
       11    1    3    3    0    0 -0.16417702983E+01  0.50980213454E+02  0.20935072201E+03  0.21547483004E+03  0.00000000000E+00 0. -1.
      -12    1    3    3    0    0 -0.11574412948E+02 -0.24574167243E+02  0.45208750023E+02  0.52741708442E+02  0.00000000000E+00 0.  1.
        4    1    1    2  501    0  0.13216183247E+02 -0.26406046211E+02  0.42696665035E+03  0.42798652699E+03  0.00000000000E+00 0. -1.
</event>
<event>
 5   1  0.6181100E+00  0.8365618E+02  0.7957747E-01  0.1318024E+00
        1   -1    0    0  501    0  0.00000000000E+00  0.00000000000E+00  0.21819339922E+02  0.21819339922E+02  0.00000000000E+00 0. -1.
       -2   -1    0    0    0  501  0.00000000000E+00  0.00000000000E+00 -0.80185252985E+02  0.80185252985E+02  0.00000000000E+00 0.  1.
      -24    2    1    2    0    0  0.00000000000E+00  0.00000000000E+00 -0.58365913063E+02  0.10200459291E+03  0.83656184269E+02 0.  0.
       11    1    3    3    0    0  0.72494030481E+01 -0.18167738077E+02  0.15898814296E+02  0.25206999969E+02  0.00000000000E+00 0. -1.
      -12    1    3    3    0    0 -0.72494030481E+01  0.18167738077E+02 -0.74264727359E+02  0.76797592938E+02  0.00000000000E+00 0.  1.
</event>
<event>
 5   1  0.6181100E+00  0.8038949E+02  0.7957747E-01  0.1326521E+00
        3   -1    0    0  501    0  0.00000000000E+00  0.00000000000E+00  0.38552026735E+02  0.38552026735E+02  0.00000000000E+00 0. -1.
       -4   -1    0    0    0  501  0.00000000000E+00  0.00000000000E+00 -0.41907456925E+02  0.41907456925E+02  0.00000000000E+00 0.  1.
      -24    2    1    2    0    0  0.00000000000E+00  0.00000000000E+00 -0.33554301896E+01  0.80459483660E+02  0.80389486869E+02 0.  0.
       11    1    3    3    0    0 -0.24755954340E+01 -0.12231144764E+02  0.36564033569E+02  0.38634932715E+02  0.00000000000E+00 0. -1.
      -12    1    3    3    0    0  0.24755954340E+01  0.12231144764E+02 -0.39919463759E+02  0.41824550946E+02  0.00000000000E+00 0.  1.
</event>
<event>
 5   1  0.6181100E+00  0.8113801E+02  0.7957747E-01  0.1324534E+00
       -4   -1    0    0    0  501  0.00000000000E+00  0.00000000000E+00  0.92636701975E+02  0.92636701975E+02  0.00000000000E+00 0.  1.
        3   -1    0    0  501    0  0.00000000000E+00  0.00000000000E+00 -0.17766653832E+02  0.17766653832E+02  0.00000000000E+00 0. -1.
      -24    2    1    2    0    0  0.00000000000E+00  0.00000000000E+00  0.74870048143E+02  0.11040335581E+03  0.81138011219E+02 0.  0.
       11    1    3    3    0    0  0.14352686213E+01  0.16600775910E+02 -0.12895617265E+02  0.21069947828E+02  0.00000000000E+00 0. -1.
      -12    1    3    3    0    0 -0.14352686213E+01 -0.16600775910E+02  0.87765665407E+02  0.89333407979E+02  0.00000000000E+00 0.  1.
</event>
<event>
 5   1  0.6181100E+00  0.8060885E+02  0.7957747E-01  0.1325936E+00
       -2   -1    0    0    0  501  0.00000000000E+00  0.00000000000E+00  0.55166037632E+03  0.55166037632E+03  0.00000000000E+00 0.  1.
        1   -1    0    0  501    0  0.00000000000E+00  0.00000000000E+00 -0.29446497934E+01  0.29446497934E+01  0.00000000000E+00 0. -1.
      -24    2    1    2    0    0  0.00000000000E+00  0.00000000000E+00  0.54871572653E+03  0.55460502612E+03  0.80608848476E+02 0.  0.
       11    1    3    3    0    0 -0.64887864464E+01 -0.26502091952E+02  0.70260296690E+02  0.75372239706E+02  0.00000000000E+00 0. -1.
      -12    1    3    3    0    0  0.64887864464E+01  0.26502091952E+02  0.47845542984E+03  0.47923278641E+03  0.00000000000E+00 0.  1.
</event>
<event>
 5   1  0.6181100E+00  0.8049034E+02  0.7957747E-01  0.1326252E+00
        1   -1    0    0  501    0  0.00000000000E+00  0.00000000000E+00  0.10905656862E+03  0.10905656862E+03  0.00000000000E+00 0. -1.
       -2   -1    0    0    0  501  0.00000000000E+00  0.00000000000E+00 -0.14851682483E+02  0.14851682483E+02  0.00000000000E+00 0.  1.
      -24    2    1    2    0    0  0.00000000000E+00  0.00000000000E+00  0.94204886134E+02  0.12390825110E+03  0.80490335563E+02 0.  0.
       11    1    3    3    0    0 -0.17166535618E+02  0.29101059726E+02  0.80762997819E+02  0.87545550652E+02  0.00000000000E+00 0. -1.
      -12    1    3    3    0    0  0.17166535618E+02 -0.29101059726E+02  0.13441888315E+02  0.36362700447E+02  0.00000000000E+00 0.  1.
</event>
<event>
 5   1  0.6181100E+00  0.7807145E+02  0.7957747E-01  0.1332833E+00
       -4   -1    0    0    0  501  0.00000000000E+00  0.00000000000E+00  0.12691995842E+02  0.12691995842E+02  0.00000000000E+00 0.  1.
        3   -1    0    0  501    0  0.00000000000E+00  0.00000000000E+00 -0.12005896475E+03  0.12005896475E+03  0.00000000000E+00 0. -1.
      -24    2    1    2    0    0  0.00000000000E+00  0.00000000000E+00 -0.10736696891E+03  0.13275096059E+03  0.78071451413E+02 0.  0.
       11    1    3    3    0    0  0.19254042378E+02  0.30284279585E+02 -0.79801427816E+02  0.87499277822E+02  0.00000000000E+00 0. -1.
      -12    1    3    3    0    0 -0.19254042378E+02 -0.30284279585E+02 -0.27565541093E+02  0.45251682772E+02  0.00000000000E+00 0.  1.
</event>
<event>
 5   1  0.6181100E+00  0.8662947E+02  0.7957747E-01  0.1310662E+00
        1   -1    0    0  501    0  0.00000000000E+00  0.00000000000E+00  0.38266639715E+02  0.38266639715E+02  0.00000000000E+00 0. -1.
       -2   -1    0    0    0  501  0.00000000000E+00  0.00000000000E+00 -0.49028770743E+02  0.49028770743E+02  0.00000000000E+00 0.  1.
      -24    2    1    2    0    0  0.00000000000E+00  0.00000000000E+00 -0.10762131029E+02  0.87295410458E+02  0.86629470867E+02 0.  0.
       11    1    3    3    0    0 -0.67711641328E+01 -0.42712903201E+02 -0.29281093135E+01  0.43345294874E+02  0.00000000000E+00 0. -1.
      -12    1    3    3    0    0  0.67711641328E+01  0.42712903201E+02 -0.78340217154E+01  0.43950115584E+02  0.00000000000E+00 0.  1.
</event>
<event>
 5   1  0.6181100E+00  0.7665171E+02  0.7957747E-01  0.1336823E+00
       -2   -1    0    0    0  501  0.00000000000E+00  0.00000000000E+00  0.79963396677E+02  0.79963396677E+02  0.00000000000E+00 0.  1.
        1   -1    0    0  501    0  0.00000000000E+00  0.00000000000E+00 -0.18369294535E+02  0.18369294535E+02  0.00000000000E+00 0. -1.
      -24    2    1    2    0    0  0.00000000000E+00  0.00000000000E+00  0.61594102143E+02  0.98332691212E+02  0.76651710628E+02 0.  0.
       11    1    3    3    0    0  0.36871141143E+02  0.46299884938E+01  0.42828065543E+02  0.56702390080E+02  0.00000000000E+00 0. -1.
      -12    1    3    3    0    0 -0.36871141143E+02 -0.46299884938E+01  0.18766036600E+02  0.41630301132E+02  0.00000000000E+00 0.  1.
</event>
<event>
 5   1  0.6181100E+00  0.8078524E+02  0.7957747E-01  0.1325468E+00
       -2   -1    0    0    0  501  0.00000000000E+00  0.00000000000E+00  0.21873438789E+03  0.21873438789E+03  0.00000000000E+00 0.  1.
        1   -1    0    0  501    0  0.00000000000E+00  0.00000000000E+00 -0.74591095254E+01  0.74591095254E+01  0.00000000000E+00 0. -1.
      -24    2    1    2    0    0  0.00000000000E+00  0.00000000000E+00  0.21127527836E+03  0.22619349741E+03  0.80785240143E+02 0.  0.
       11    1    3    3    0    0  0.21289526885E+02  0.27751462840E+02  0.49069500700E+02  0.60259468498E+02  0.00000000000E+00 0. -1.
      -12    1    3    3    0    0 -0.21289526885E+02 -0.27751462840E+02  0.16220577766E+03  0.16593402892E+03  0.00000000000E+00 0.  1.
</event>
<event>
 5   1  0.6181100E+00  0.8188201E+02  0.7957747E-01  0.1322583E+00
        1   -1    0    0  501    0  0.00000000000E+00  0.00000000000E+00  0.56429146125E+01  0.56429146125E+01  0.00000000000E+00 0. -1.
       -2   -1    0    0    0  501  0.00000000000E+00  0.00000000000E+00 -0.29703904497E+03  0.29703904497E+03  0.00000000000E+00 0.  1.
      -24    2    1    2    0    0  0.00000000000E+00  0.00000000000E+00 -0.29139613036E+03  0.30268195958E+03  0.81882011879E+02 0.  0.
       11    1    3    3    0    0 -0.40309253374E+02 -0.60151882071E+01 -0.13131108899E+03  0.13749043781E+03  0.00000000000E+00 0. -1.
      -12    1    3    3    0    0  0.40309253374E+02  0.60151882071E+01 -0.16008504137E+03  0.16519152177E+03  0.00000000000E+00 0.  1.
</event>
<event>
 6   2  0.6181100E+00  0.8592780E+02  0.7957747E-01  0.1312369E+00
        3   -1    0    0  502    0  0.00000000000E+00  0.00000000000E+00  0.18085789160E+03  0.18085789160E+03  0.00000000000E+00 0. -1.
       -4   -1    0    0    0  501  0.00000000000E+00  0.00000000000E+00 -0.18075240097E+02  0.18075240097E+02  0.00000000000E+00 0.  1.
      -24    2    1    2    0    0 -0.24956335758E+01 -0.28218669020E+02  0.11885992875E+03  0.14666720549E+03  0.81123763695E+02 0.  0.
       11    1    3    3    0    0  0.17488627405E+02 -0.34736339561E+02  0.11946751489E+03  0.12563818085E+03  0.00000000000E+00 0. -1.
      -12    1    3    3    0    0 -0.19984260980E+02  0.65176705414E+01 -0.60758614093E+00  0.21029024636E+02  0.00000000000E+00 0.  1.
       21    1    1    2  502  501  0.24956335758E+01  0.28218669020E+02  0.43922722759E+02  0.52265926211E+02  0.00000000000E+00 0.  1.
</event>
<event>
 5   1  0.6181100E+00  0.7696258E+02  0.7957747E-01  0.1335941E+00
        1   -1    0    0  501    0  0.00000000000E+00  0.00000000000E+00  0.13819092907E+01  0.13819092907E+01  0.00000000000E+00 0. -1.
       -2   -1    0    0    0  501  0.00000000000E+00  0.00000000000E+00 -0.10715679097E+04  0.10715679097E+04  0.00000000000E+00 0.  1.
      -24    2    1    2    0    0  0.00000000000E+00  0.00000000000E+00 -0.10701860004E+04  0.10729498190E+04  0.76962579219E+02 0.  0.
       11    1    3    3    0    0 -0.13531907548E+01 -0.17953896038E+02 -0.60962191304E+02  0.63565417302E+02  0.00000000000E+00 0. -1.
      -12    1    3    3    0    0  0.13531907548E+01  0.17953896038E+02 -0.10092238091E+04  0.10093844017E+04  0.00000000000E+00 0.  1.
</event>
<event>
 6   2  0.6181100E+00  0.8289421E+02  0.7957747E-01  0.1319966E+00
        3   -1    0    0  502    0  0.00000000000E+00  0.00000000000E+00  0.13238208019E+02  0.13238208019E+02  0.00000000000E+00 0. -1.
       21   -1    0    0  501  502  0.00000000000E+00  0.00000000000E+00 -0.28052028274E+03  0.28052028274E+03  0.00000000000E+00 0. -1.
      -24    2    1    2    0    0 -0.27679251925E+02 -0.72440341874E+01 -0.13500814869E+03  0.15842553644E+03  0.77799957351E+02 0.  0.
       11    1    3    3    0    0 -0.49788823261E+01 -0.19324766763E+02  0.10260533013E+01  0.19982208713E+02  0.00000000000E+00 0. -1.
      -12    1    3    3    0    0 -0.22700369599E+02  0.12080732575E+02 -0.13603420199E+03  0.13844332773E+03  0.00000000000E+00 0.  1.
        4    1    1    2  501    0  0.27679251925E+02  0.72440341874E+01 -0.13227392602E+03  0.13533295432E+03  0.00000000000E+00 0. -1.
</event>
<event>
 5   1  0.6181100E+00  0.7335425E+02  0.7957747E-01  0.1346481E+00
       -4   -1    0    0    0  501  0.00000000000E+00  0.00000000000E+00  0.47265985187E+01  0.47265985187E+01  0.00000000000E+00 0.  1.
        3   -1    0    0  501    0  0.00000000000E+00  0.00000000000E+00 -0.28460454871E+03  0.28460454871E+03  0.00000000000E+00 0. -1.
      -24    2    1    2    0    0  0.00000000000E+00  0.00000000000E+00 -0.27987795019E+03  0.28933114722E+03  0.73354248366E+02 0.  0.
       11    1    3    3    0    0  0.32994963128E+02  0.74532211028E+01 -0.84019800402E+02  0.90573423013E+02  0.00000000000E+00 0. -1.
      -12    1    3    3    0    0 -0.32994963128E+02 -0.74532211028E+01 -0.19585814978E+03  0.19875772421E+03  0.00000000000E+00 0.  1.
</event>
<event>
 5   1  0.6181100E+00  0.7932095E+02  0.7957747E-01  0.1329400E+00
        1   -1    0    0  501    0  0.00000000000E+00  0.00000000000E+00  0.38331249189E+03  0.38331249189E+03  0.00000000000E+00 0. -1.
       -2   -1    0    0    0  501  0.00000000000E+00  0.00000000000E+00 -0.41035795165E+01  0.41035795165E+01  0.00000000000E+00 0.  1.
      -24    2    1    2    0    0  0.00000000000E+00  0.00000000000E+00  0.37920891237E+03  0.38741607140E+03  0.79320950325E+02 0.  0.
       11    1    3    3    0    0  0.11043785079E+01 -0.37611485184E+02  0.12838472894E+03  0.13378520880E+03  0.00000000000E+00 0. -1.
      -12    1    3    3    0    0 -0.11043785079E+01  0.37611485184E+02  0.25082418343E+03  0.25363086260E+03  0.00000000000E+00 0.  1.
</event>
<event>
 5   1  0.6181100E+00  0.8126013E+02  0.7957747E-01  0.1324212E+00
       -2   -1    0    0    0  501  0.00000000000E+00  0.00000000000E+00  0.28068285351E+03  0.28068285351E+03  0.00000000000E+00 0.  1.
        1   -1    0    0  501    0  0.00000000000E+00  0.00000000000E+00 -0.58813787856E+01  0.58813787856E+01  0.00000000000E+00 0. -1.
      -24    2    1    2    0    0  0.00000000000E+00  0.00000000000E+00  0.27480147472E+03  0.28656423229E+03  0.81260129955E+02 0.  0.
       11    1    3    3    0    0  0.39846365845E+02  0.92237154258E+00  0.16521735862E+03  0.16995693345E+03  0.00000000000E+00 0. -1.
      -12    1    3    3    0    0 -0.39846365845E+02 -0.92237154258E+00  0.10958411610E+03  0.11660729884E+03  0.00000000000E+00 0.  1.
</event>
<event>
 5   1  0.6181100E+00  0.8004880E+02  0.7957747E-01  0.1327434E+00
       -2   -1    0    0    0  501  0.00000000000E+00  0.00000000000E+00  0.16735483726E+02  0.16735483726E+02  0.00000000000E+00 0.  1.
        1   -1    0    0  501    0  0.00000000000E+00  0.00000000000E+00 -0.95721912728E+02  0.95721912728E+02  0.00000000000E+00 0. -1.
      -24    2    1    2    0    0  0.00000000000E+00  0.00000000000E+00 -0.78986429002E+02  0.11245739645E+03  0.80048797934E+02 0.  0.
       11    1    3    3    0    0 -0.18540017737E+02  0.25332010038E+02 -0.74375353199E+02  0.80728781446E+02  0.00000000000E+00 0. -1.
      -12    1    3    3    0    0  0.18540017737E+02 -0.25332010038E+02 -0.46110758029E+01  0.31728615008E+02  0.00000000000E+00 0.  1.
</event>
<event>
 5   1  0.6181100E+00  0.7942494E+02  0.7957747E-01  0.1329118E+00
       -2   -1    0    0    0  501  0.00000000000E+00  0.00000000000E+00  0.22502176904E+02  0.22502176904E+02  0.00000000000E+00 0.  1.
        1   -1    0    0  501    0  0.00000000000E+00  0.00000000000E+00 -0.70085683591E+02  0.70085683591E+02  0.00000000000E+00 0. -1.
      -24    2    1    2    0    0  0.00000000000E+00  0.00000000000E+00 -0.47583506687E+02  0.92587860495E+02  0.79424944460E+02 0.  0.
       11    1    3    3    0    0  0.31107107182E+02  0.22453009100E+02 -0.35753433007E+02  0.52441373997E+02  0.00000000000E+00 0. -1.
      -12    1    3    3    0    0 -0.31107107182E+02 -0.22453009100E+02 -0.11830073679E+02  0.40146486498E+02  0.00000000000E+00 0.  1.
</event>
<event>
 5   1  0.6181100E+00  0.8121350E+02  0.7957747E-01  0.1324335E+00
       -2   -1    0    0    0  501  0.00000000000E+00  0.00000000000E+00  0.92330185591E+02  0.92330185591E+02  0.00000000000E+00 0.  1.
        1   -1    0    0  501    0  0.00000000000E+00  0.00000000000E+00 -0.17858820688E+02  0.17858820688E+02  0.00000000000E+00 0. -1.
      -24    2    1    2    0    0  0.00000000000E+00  0.00000000000E+00  0.74471364904E+02  0.11018900628E+03  0.81213502043E+02 0.  0.
       11    1    3    3    0    0 -0.52911033359E+01 -0.17962351035E+02 -0.11651154282E+02  0.22054279070E+02  0.00000000000E+00 0. -1.
      -12    1    3    3    0    0  0.52911033359E+01  0.17962351035E+02  0.86122519186E+02  0.88134727209E+02  0.00000000000E+00 0.  1.
</event>
<event>
 5   1  0.6181100E+00  0.8232880E+02  0.7957747E-01  0.1321423E+00
        1   -1    0    0  501    0  0.00000000000E+00  0.00000000000E+00  0.39748039509E+02  0.39748039509E+02  0.00000000000E+00 0. -1.
       -2   -1    0    0    0  501  0.00000000000E+00  0.00000000000E+00 -0.42631230905E+02  0.42631230905E+02  0.00000000000E+00 0.  1.
      -24    2    1    2    0    0  0.00000000000E+00  0.00000000000E+00 -0.28831913953E+01  0.82379270414E+02  0.82328800558E+02 0.  0.
       11    1    3    3    0    0  0.34484989852E+02 -0.15975920808E+02  0.14381487601E+02  0.40635843247E+02  0.00000000000E+00 0. -1.
      -12    1    3    3    0    0 -0.34484989852E+02  0.15975920808E+02 -0.17264678997E+02  0.41743427167E+02  0.00000000000E+00 0.  1.
</event>
<event>
 5   1  0.6181100E+00  0.7958509E+02  0.7957747E-01  0.1328684E+00
       -2   -1    0    0    0  501  0.00000000000E+00  0.00000000000E+00  0.61011734552E+02  0.61011734552E+02  0.00000000000E+00 0.  1.
        1   -1    0    0  501    0  0.00000000000E+00  0.00000000000E+00 -0.25953148836E+02  0.25953148836E+02  0.00000000000E+00 0. -1.
      -24    2    1    2    0    0  0.00000000000E+00  0.00000000000E+00  0.35058585716E+02  0.86964883388E+02  0.79585089748E+02 0.  0.
       11    1    3    3    0    0 -0.38366860466E+02 -0.95418673422E+01  0.22462742072E+02  0.45471287598E+02  0.00000000000E+00 0. -1.
      -12    1    3    3    0    0  0.38366860466E+02  0.95418673422E+01  0.12595843644E+02  0.41493595789E+02  0.00000000000E+00 0.  1.
</event>
<event>
 5   1  0.6181100E+00  0.7870901E+02  0.7957747E-01  0.1331073E+00
        1   -1    0    0  501    0  0.00000000000E+00  0.00000000000E+00  0.24771398510E+01  0.24771398510E+01  0.00000000000E+00 0. -1.
       -2   -1    0    0    0  501  0.00000000000E+00  0.00000000000E+00 -0.62522799201E+03  0.62522799201E+03  0.00000000000E+00 0.  1.
      -24    2    1    2    0    0  0.00000000000E+00  0.00000000000E+00 -0.62275085216E+03  0.62770513187E+03  0.78709012825E+02 0.  0.
       11    1    3    3    0    0  0.18288623747E+01 -0.35205285780E+02 -0.17186510914E+03  0.17544336016E+03  0.00000000000E+00 0. -1.
      -12    1    3    3    0    0 -0.18288623747E+01  0.35205285780E+02 -0.45088574302E+03  0.45226177170E+03  0.00000000000E+00 0.  1.
</event>
<event>
 5   1  0.6181100E+00  0.8009732E+02  0.7957747E-01  0.1327303E+00
       -2   -1    0    0    0  501  0.00000000000E+00  0.00000000000E+00  0.25676384264E+02  0.25676384264E+02  0.00000000000E+00 0.  1.
        1   -1    0    0  501    0  0.00000000000E+00  0.00000000000E+00 -0.62465767550E+02  0.62465767550E+02  0.00000000000E+00 0. -1.
      -24    2    1    2    0    0  0.00000000000E+00  0.00000000000E+00 -0.36789383286E+02  0.88142151814E+02  0.80097317083E+02 0.  0.
       11    1    3    3    0    0 -0.27361223897E+02 -0.27261779402E+02 -0.30043435439E+02  0.48933109469E+02  0.00000000000E+00 0. -1.
      -12    1    3    3    0    0  0.27361223897E+02  0.27261779402E+02 -0.67459478472E+01  0.39209042345E+02  0.00000000000E+00 0.  1.
</event>
<event>
 5   1  0.6181100E+00  0.8023022E+02  0.7957747E-01  0.1326947E+00
        1   -1    0    0  501    0  0.00000000000E+00  0.00000000000E+00  0.40446831582E+02  0.40446831582E+02  0.00000000000E+00 0. -1.
       -2   -1    0    0    0  501  0.00000000000E+00  0.00000000000E+00 -0.39786112621E+02  0.39786112621E+02  0.00000000000E+00 0.  1.
      -24    2    1    2    0    0  0.00000000000E+00  0.00000000000E+00  0.66071896145E+00  0.80232944203E+02  0.80230223644E+02 0.  0.
       11    1    3    3    0    0 -0.23132547679E+01  0.17007810007E+02  0.36589077110E+02  0.40415062942E+02  0.00000000000E+00 0. -1.
      -12    1    3    3    0    0  0.23132547679E+01 -0.17007810007E+02 -0.35928358149E+02  0.39817881261E+02  0.00000000000E+00 0.  1.
</event>
<event>
 5   1  0.6181100E+00  0.7768505E+02  0.7957747E-01  0.1333910E+00
       -4   -1    0    0    0  501  0.00000000000E+00  0.00000000000E+00  0.73734332796E+02  0.73734332796E+02  0.00000000000E+00 0.  1.
        3   -1    0    0  501    0  0.00000000000E+00  0.00000000000E+00 -0.20461860976E+02  0.20461860976E+02  0.00000000000E+00 0. -1.
      -24    2    1    2    0    0  0.00000000000E+00  0.00000000000E+00  0.53272471820E+02  0.94196193773E+02  0.77685047902E+02 0.  0.
       11    1    3    3    0    0 -0.37640811826E+02 -0.86315955625E+01  0.21577386310E+02  0.44237074461E+02  0.00000000000E+00 0. -1.
      -12    1    3    3    0    0  0.37640811826E+02  0.86315955625E+01  0.31695085510E+02  0.49959119312E+02  0.00000000000E+00 0.  1.
</event>
<event>
 5   1  0.6181100E+00  0.8055952E+02  0.7957747E-01  0.1326068E+00
       -2   -1    0    0    0  501  0.00000000000E+00  0.00000000000E+00  0.22978302486E+02  0.22978302486E+02  0.00000000000E+00 0.  1.
        1   -1    0    0  501    0  0.00000000000E+00  0.00000000000E+00 -0.70608306784E+02  0.70608306784E+02  0.00000000000E+00 0. -1.
      -24    2    1    2    0    0  0.00000000000E+00  0.00000000000E+00 -0.47630004298E+02  0.93586609270E+02  0.80559519147E+02 0.  0.
       11    1    3    3    0    0 -0.18916125339E+02  0.14414479444E+02 -0.61581437234E+02  0.66014168383E+02  0.00000000000E+00 0. -1.
      -12    1    3    3    0    0  0.18916125339E+02 -0.14414479444E+02  0.13951432936E+02  0.27572440887E+02  0.00000000000E+00 0.  1.
</event>
<event>
 5   1  0.6181100E+00  0.8422268E+02  0.7957747E-01  0.1316595E+00
        1   -1    0    0  501    0  0.00000000000E+00  0.00000000000E+00  0.11313835948E+03  0.11313835948E+03  0.00000000000E+00 0. -1.
       -2   -1    0    0    0  501  0.00000000000E+00  0.00000000000E+00 -0.15674303185E+02  0.15674303185E+02  0.00000000000E+00 0.  1.
      -24    2    1    2    0    0  0.00000000000E+00  0.00000000000E+00  0.97464056297E+02  0.12881266267E+03  0.84222679806E+02 0.  0.
       11    1    3    3    0    0 -0.15828258492E+02 -0.23147069598E+02  0.96782519764E+02  0.10076297301E+03  0.00000000000E+00 0. -1.
      -12    1    3    3    0    0  0.15828258492E+02  0.23147069598E+02  0.68153653282E+00  0.28049689658E+02  0.00000000000E+00 0.  1.
</event>
<event>
 5   1  0.6181100E+00  0.8011287E+02  0.7957747E-01  0.1327262E+00
        1   -1    0    0  501    0  0.00000000000E+00  0.00000000000E+00  0.44095845507E+02  0.44095845507E+02  0.00000000000E+00 0. -1.
       -2   -1    0    0    0  501  0.00000000000E+00  0.00000000000E+00 -0.36387054188E+02  0.36387054188E+02  0.00000000000E+00 0.  1.
      -24    2    1    2    0    0  0.00000000000E+00  0.00000000000E+00  0.77087913192E+01  0.80482899695E+02  0.80112868377E+02 0.  0.
       11    1    3    3    0    0 -0.24284841905E+02 -0.92815805650E+01  0.34468359386E+02  0.43173708237E+02  0.00000000000E+00 0. -1.
      -12    1    3    3    0    0  0.24284841905E+02  0.92815805650E+01 -0.26759568067E+02  0.37309191458E+02  0.00000000000E+00 0.  1.
</event>
<event>
 5   1  0.6181100E+00  0.8214553E+02  0.7957747E-01  0.1321898E+00
        1   -1    0    0  501    0  0.00000000000E+00  0.00000000000E+00  0.31360962604E+02  0.31360962604E+02  0.00000000000E+00 0. -1.
       -2   -1    0    0    0  501  0.00000000000E+00  0.00000000000E+00 -0.53792100709E+02  0.53792100709E+02  0.00000000000E+00 0.  1.
      -24    2    1    2    0    0  0.00000000000E+00  0.00000000000E+00 -0.22431138105E+02  0.85153063313E+02  0.82145530827E+02 0.  0.
       11    1    3    3    0    0 -0.86525489823E+01 -0.38821774675E+02 -0.59470555222E+00  0.39778769054E+02  0.00000000000E+00 0. -1.
      -12    1    3    3    0    0  0.86525489823E+01  0.38821774675E+02 -0.21836432553E+02  0.45374294258E+02  0.00000000000E+00 0.  1.
</event>
<event>
 4   3  0.6181100E+00  0.2051633E+03  0.7957747E-01  0.1151843E+00
       21   -1    0    0  501  502  0.00000000000E+00  0.00000000000E+00  0.77867865004E+03  0.77867865004E+03  0.00000000000E+00 0. -1.
       21   -1    0    0  502  503  0.00000000000E+00  0.00000000000E+00 -0.54214143599E+02  0.54214143599E+02  0.00000000000E+00 0.  1.
        6    1    1    2  501    0 -0.68795924003E+02 -0.86198000200E+02  0.38474971992E+03  0.43603247743E+03  0.17300000000E+03 0.  1.
       -6    1    1    2    0  503  0.68795924003E+02  0.86198000200E+02  0.33971478652E+03  0.39686031621E+03  0.17300000000E+03 0. -1.
</event>
<event>
 5   1  0.6181100E+00  0.8022536E+02  0.7957747E-01  0.1326960E+00
        3   -1    0    0  501    0  0.00000000000E+00  0.00000000000E+00  0.15887828375E+01  0.15887828375E+01  0.00000000000E+00 0. -1.
       -4   -1    0    0    0  501  0.00000000000E+00  0.00000000000E+00 -0.10127421186E+04  0.10127421186E+04  0.00000000000E+00 0.  1.
      -24    2    1    2    0    0  0.00000000000E+00  0.00000000000E+00 -0.10111533358E+04  0.10143309014E+04  0.80225364986E+02 0.  0.
       11    1    3    3    0    0 -0.77084362714E+01  0.99694955800E+01 -0.24089884320E+02  0.27187007162E+02  0.00000000000E+00 0. -1.
      -12    1    3    3    0    0  0.77084362714E+01 -0.99694955800E+01 -0.98706345144E+03  0.98714389427E+03  0.00000000000E+00 0.  1.
</event>
<event>
 5   1  0.6181100E+00  0.7697169E+02  0.7957747E-01  0.1335916E+00
        1   -1    0    0  501    0  0.00000000000E+00  0.00000000000E+00  0.16929127285E+02  0.16929127285E+02  0.00000000000E+00 0. -1.
       -2   -1    0    0    0  501  0.00000000000E+00  0.00000000000E+00 -0.87491820693E+02  0.87491820693E+02  0.00000000000E+00 0.  1.
      -24    2    1    2    0    0  0.00000000000E+00  0.00000000000E+00 -0.70562693408E+02  0.10442094798E+03  0.76971687494E+02 0.  0.
       11    1    3    3    0    0 -0.17794328744E+02 -0.32540227361E+02 -0.21336846289E+02  0.42787446076E+02  0.00000000000E+00 0. -1.
      -12    1    3    3    0    0  0.17794328744E+02  0.32540227361E+02 -0.49225847120E+02  0.61633501902E+02  0.00000000000E+00 0.  1.
</event>
<event>
 5   1  0.6181100E+00  0.8233912E+02  0.7957747E-01  0.1321396E+00
       -4   -1    0    0    0  501  0.00000000000E+00  0.00000000000E+00  0.83138100675E+01  0.83138100675E+01  0.00000000000E+00 0.  1.
        3   -1    0    0  501    0  0.00000000000E+00  0.00000000000E+00 -0.20386952823E+03  0.20386952823E+03  0.00000000000E+00 0. -1.
      -24    2    1    2    0    0  0.00000000000E+00  0.00000000000E+00 -0.19555571817E+03  0.21218333830E+03  0.82339116738E+02 0.  0.
       11    1    3    3    0    0  0.28454507894E+02  0.29640168717E+02 -0.91090742462E+02  0.99928584415E+02  0.00000000000E+00 0. -1.
      -12    1    3    3    0    0 -0.28454507894E+02 -0.29640168717E+02 -0.10446497570E+03  0.11225475389E+03  0.00000000000E+00 0.  1.
</event>
<event>
 5   1  0.6181100E+00  0.8058506E+02  0.7957747E-01  0.1326000E+00
       -2   -1    0    0    0  501  0.00000000000E+00  0.00000000000E+00  0.11241387982E+02  0.11241387982E+02  0.00000000000E+00 0.  1.
        1   -1    0    0  501    0  0.00000000000E+00  0.00000000000E+00 -0.14442059844E+03  0.14442059844E+03  0.00000000000E+00 0. -1.
      -24    2    1    2    0    0  0.00000000000E+00  0.00000000000E+00 -0.13317921046E+03  0.15566198643E+03  0.80585060148E+02 0.  0.
       11    1    3    3    0    0 -0.28508298376E+02 -0.11550127812E+02 -0.11686293272E+03  0.12084317760E+03  0.00000000000E+00 0. -1.
      -12    1    3    3    0    0  0.28508298376E+02  0.11550127812E+02 -0.16316277745E+02  0.34818808829E+02  0.00000000000E+00 0.  1.
</event>
<event>
 5   1  0.6181100E+00  0.8085886E+02  0.7957747E-01  0.1325272E+00
       -2   -1    0    0    0  501  0.00000000000E+00  0.00000000000E+00  0.15449129047E+02  0.15449129047E+02  0.00000000000E+00 0.  1.
        1   -1    0    0  501    0  0.00000000000E+00  0.00000000000E+00 -0.10580136724E+03  0.10580136724E+03  0.00000000000E+00 0. -1.
      -24    2    1    2    0    0  0.00000000000E+00  0.00000000000E+00 -0.90352238189E+02  0.12125049628E+03  0.80858864098E+02 0.  0.
       11    1    3    3    0    0  0.31249106319E+02 -0.23141321099E+01 -0.83485495610E+02  0.89172248096E+02  0.00000000000E+00 0. -1.
      -12    1    3    3    0    0 -0.31249106319E+02  0.23141321099E+01 -0.68667425783E+01  0.32078248187E+02  0.00000000000E+00 0.  1.
</event>
<event>
 4   1  0.6181100E+00  0.4227951E+02  0.7957747E-01  0.1480506E+00
        1   -1    0    0  501    0  0.00000000000E+00  0.00000000000E+00  0.26964193404E+02  0.26964193404E+02  0.00000000000E+00 0. -1.
       -2   -1    0    0    0  501  0.00000000000E+00  0.00000000000E+00 -0.16573431808E+02  0.16573431808E+02  0.00000000000E+00 0.  1.
       11    1    1    2    0    0  0.14059044619E+02  0.15683327920E+02  0.33344782223E+01  0.21324686522E+02  0.00000000000E+00 0. -1.
      -12    1    1    2    0    0 -0.14059044619E+02 -0.15683327920E+02  0.70562833742E+01  0.22212938691E+02  0.00000000000E+00 0.  1.
</event>
<event>
 5   1  0.6181100E+00  0.7921415E+02  0.7957747E-01  0.1329691E+00
        3   -1    0    0  501    0  0.00000000000E+00  0.00000000000E+00  0.41650221275E+01  0.41650221275E+01  0.00000000000E+00 0. -1.
       -4   -1    0    0    0  501  0.00000000000E+00  0.00000000000E+00 -0.37664157760E+03  0.37664157760E+03  0.00000000000E+00 0.  1.
      -24    2    1    2    0    0  0.00000000000E+00  0.00000000000E+00 -0.37247655547E+03  0.38080659972E+03  0.79214152898E+02 0.  0.
       11    1    3    3    0    0 -0.32750485595E+01  0.25352292400E+02 -0.40801937773E+02  0.48148341602E+02  0.00000000000E+00 0. -1.
      -12    1    3    3    0    0  0.32750485595E+01 -0.25352292400E+02 -0.33167461770E+03  0.33265825812E+03  0.00000000000E+00 0.  1.
</event>
<event>
 5   1  0.6181100E+00  0.7853366E+02  0.7957747E-01  0.1331555E+00
        1   -1    0    0  501    0  0.00000000000E+00  0.00000000000E+00  0.13685984199E+03  0.13685984199E+03  0.00000000000E+00 0. -1.
       -2   -1    0    0    0  501  0.00000000000E+00  0.00000000000E+00 -0.11266154143E+02  0.11266154143E+02  0.00000000000E+00 0.  1.
      -24    2    1    2    0    0  0.00000000000E+00  0.00000000000E+00  0.12559368785E+03  0.14812599614E+03  0.78533663505E+02 0.  0.
       11    1    3    3    0    0  0.15519232550E+02  0.19322619058E+02  0.12024460312E+03  0.12277204391E+03  0.00000000000E+00 0. -1.
      -12    1    3    3    0    0 -0.15519232550E+02 -0.19322619058E+02  0.53490847347E+01  0.25353952231E+02  0.00000000000E+00 0.  1.
</event>
<event>
 5   1  0.6181100E+00  0.8001586E+02  0.7957747E-01  0.1327522E+00
        3   -1    0    0  501    0  0.00000000000E+00  0.00000000000E+00  0.64604460713E+02  0.64604460713E+02  0.00000000000E+00 0. -1.
       -4   -1    0    0    0  501  0.00000000000E+00  0.00000000000E+00 -0.24775912815E+02  0.24775912815E+02  0.00000000000E+00 0.  1.
      -24    2    1    2    0    0  0.00000000000E+00  0.00000000000E+00  0.39828547898E+02  0.89380373528E+02  0.80015860580E+02 0.  0.
       11    1    3    3    0    0 -0.77455246442E+01  0.29755429403E+02  0.48508049697E+02  0.57431782284E+02  0.00000000000E+00 0. -1.
      -12    1    3    3    0    0  0.77455246442E+01 -0.29755429403E+02 -0.86795017993E+01  0.31948591244E+02  0.00000000000E+00 0.  1.
</event>
<event>
 5   1  0.6181100E+00  0.8164497E+02  0.7957747E-01  0.1323202E+00
        3   -1    0    0  501    0  0.00000000000E+00  0.00000000000E+00  0.21907323665E+03  0.21907323665E+03  0.00000000000E+00 0. -1.
       -4   -1    0    0    0  501  0.00000000000E+00  0.00000000000E+00 -0.76069328618E+01  0.76069328618E+01  0.00000000000E+00 0.  1.
      -24    2    1    2    0    0  0.00000000000E+00  0.00000000000E+00  0.21146630379E+03  0.22668016951E+03  0.81644972975E+02 0.  0.
       11    1    3    3    0    0 -0.11141256008E+02 -0.31909594313E+02  0.16929576878E+03  0.17263663319E+03  0.00000000000E+00 0. -1.
      -12    1    3    3    0    0  0.11141256008E+02  0.31909594313E+02  0.42170535014E+02  0.54043536321E+02  0.00000000000E+00 0.  1.
</event>
<event>
 5   1  0.6181100E+00  0.8185776E+02  0.7957747E-01  0.1322646E+00
        1   -1    0    0  501    0  0.00000000000E+00  0.00000000000E+00  0.18247158392E+03  0.18247158392E+03  0.00000000000E+00 0. -1.
       -2   -1    0    0    0  501  0.00000000000E+00  0.00000000000E+00 -0.91804602046E+01  0.91804602046E+01  0.00000000000E+00 0.  1.
      -24    2    1    2    0    0  0.00000000000E+00  0.00000000000E+00  0.17329112372E+03  0.19165204413E+03  0.81857757475E+02 0.  0.
       11    1    3    3    0    0  0.29735894209E+02 -0.27540922785E+02  0.73309033968E+02  0.83767179096E+02  0.00000000000E+00 0. -1.
      -12    1    3    3    0    0 -0.29735894209E+02  0.27540922785E+02  0.99982089751E+02  0.10788486503E+03  0.00000000000E+00 0.  1.
</event>
<event>
 6   2  0.6181100E+00  0.8482383E+02  0.7957747E-01  0.1315092E+00
        3   -1    0    0  502    0  0.00000000000E+00  0.00000000000E+00  0.72468364558E+01  0.72468364558E+01  0.00000000000E+00 0. -1.
       21   -1    0    0  501  502  0.00000000000E+00  0.00000000000E+00 -0.43765187197E+03  0.43765187197E+03  0.00000000000E+00 0. -1.
      -24    2    1    2    0    0  0.81275808516E+00 -0.27680384206E+02 -0.33300538912E+03  0.34363886760E+03  0.80176167905E+02 0.  0.
       11    1    3    3    0    0  0.32855621412E+02 -0.38270669665E+02 -0.17841788444E+03  0.18541056470E+03  0.00000000000E+00 0. -1.
      -12    1    3    3    0    0 -0.32042863327E+02  0.10590285458E+02 -0.15458750468E+03  0.15822830290E+03  0.00000000000E+00 0.  1.
        4    1    1    2  501    0 -0.81275808516E+00  0.27680384206E+02 -0.97399646397E+02  0.10125984082E+03  0.00000000000E+00 0. -1.
</event>
<event>
 4   3  0.6181100E+00  0.2723805E+03  0.7957747E-01  0.1107723E+00
       21   -1    0    0  503  502  0.00000000000E+00  0.00000000000E+00  0.20802724188E+03  0.20802724188E+03  0.00000000000E+00 0.  1.
       21   -1    0    0  501  503  0.00000000000E+00  0.00000000000E+00 -0.62672745329E+03  0.62672745329E+03  0.00000000000E+00 0. -1.
        6    1    1    2  501    0  0.21038255577E+03  0.11500739488E+01 -0.48334377858E+03  0.55480839101E+03  0.17300000000E+03 0. -1.
       -6    1    1    2    0  502 -0.21038255577E+03 -0.11500739488E+01  0.64643567171E+02  0.27994630417E+03  0.17300000000E+03 0.  1.
</event>
<event>
 5   1  0.6181100E+00  0.8081399E+02  0.7957747E-01  0.1325391E+00
       -2   -1    0    0    0  501  0.00000000000E+00  0.00000000000E+00  0.88726008337E+02  0.88726008337E+02  0.00000000000E+00 0.  1.
        1   -1    0    0  501    0  0.00000000000E+00  0.00000000000E+00 -0.18401877721E+02  0.18401877721E+02  0.00000000000E+00 0. -1.
      -24    2    1    2    0    0  0.00000000000E+00  0.00000000000E+00  0.70324130616E+02  0.10712788606E+03  0.80813987801E+02 0.  0.
       11    1    3    3    0    0  0.20385630515E+02 -0.13326163867E+02 -0.75786449113E+01  0.25506791911E+02  0.00000000000E+00 0. -1.
      -12    1    3    3    0    0 -0.20385630515E+02  0.13326163867E+02  0.77902775527E+02  0.81621094147E+02  0.00000000000E+00 0.  1.
</event>
<event>
 4   3  0.6181100E+00  0.2218058E+03  0.7957747E-01  0.1139354E+00
       21   -1    0    0  503  502  0.00000000000E+00  0.00000000000E+00  0.89480506870E+03  0.89480506870E+03  0.00000000000E+00 0.  1.
       21   -1    0    0  501  503  0.00000000000E+00  0.00000000000E+00 -0.98766119810E+02  0.98766119810E+02  0.00000000000E+00 0. -1.
        6    1    1    2  501    0 -0.12964088509E+03  0.49619011179E+02  0.67250060994E+02  0.23177656495E+03  0.17300000000E+03 0. -1.
       -6    1    1    2    0  502  0.12964088509E+03 -0.49619011179E+02  0.72878888790E+03  0.76179462356E+03  0.17300000000E+03 0.  1.
</event>
<event>
 5   1  0.6181100E+00  0.8017975E+02  0.7957747E-01  0.1327082E+00
       -2   -1    0    0    0  501  0.00000000000E+00  0.00000000000E+00  0.21695015487E+03  0.21695015487E+03  0.00000000000E+00 0.  1.
        1   -1    0    0  501    0  0.00000000000E+00  0.00000000000E+00 -0.74081451533E+01  0.74081451533E+01  0.00000000000E+00 0. -1.
      -24    2    1    2    0    0  0.00000000000E+00  0.00000000000E+00  0.20954200971E+03  0.22435830002E+03  0.80179754010E+02 0.  0.
       11    1    3    3    0    0 -0.78282289677E+01 -0.11211196714E+02 -0.68132312097E+00  0.13690737808E+02  0.00000000000E+00 0. -1.
      -12    1    3    3    0    0  0.78282289677E+01  0.11211196714E+02  0.21022333283E+03  0.21066756221E+03  0.00000000000E+00 0.  1.
</event>
<event>
 5   1  0.6181100E+00  0.8076629E+02  0.7957747E-01  0.1325518E+00
        1   -1    0    0  501    0  0.00000000000E+00  0.00000000000E+00  0.91452703060E+02  0.91452703060E+02  0.00000000000E+00 0. -1.
       -2   -1    0    0    0  501  0.00000000000E+00  0.00000000000E+00 -0.17832152242E+02  0.17832152242E+02  0.00000000000E+00 0.  1.
      -24    2    1    2    0    0  0.00000000000E+00  0.00000000000E+00  0.73620550818E+02  0.10928485530E+03  0.80766293065E+02 0.  0.
       11    1    3    3    0    0 -0.11911548853E+02  0.21235971663E+02  0.80403342658E+02  0.84009219727E+02  0.00000000000E+00 0. -1.
      -12    1    3    3    0    0  0.11911548853E+02 -0.21235971663E+02 -0.67827918402E+01  0.25275635574E+02  0.00000000000E+00 0.  1.
</event>
<event>
 4   3  0.6181100E+00  0.2562134E+03  0.7957747E-01  0.1116960E+00
       21   -1    0    0  503  502  0.00000000000E+00  0.00000000000E+00  0.30161179296E+03  0.30161179296E+03  0.00000000000E+00 0. -1.
       21   -1    0    0  501  503  0.00000000000E+00  0.00000000000E+00 -0.42318732307E+03  0.42318732307E+03  0.00000000000E+00 0.  1.
        6    1    1    2  501    0 -0.16290870666E+03 -0.95796979020E+02 -0.31335001038E+03  0.40476355678E+03  0.17300000000E+03 0.  1.
       -6    1    1    2    0  502  0.16290870666E+03  0.95796979020E+02  0.19177448027E+03  0.32003555924E+03  0.17300000000E+03 0. -1.
</event>
<event>
 5   1  0.6181100E+00  0.8052648E+02  0.7957747E-01  0.1326156E+00
       -2   -1    0    0    0  501  0.00000000000E+00  0.00000000000E+00  0.34226106704E+02  0.34226106704E+02  0.00000000000E+00 0.  1.
        1   -1    0    0  501    0  0.00000000000E+00  0.00000000000E+00 -0.47365259435E+02  0.47365259435E+02  0.00000000000E+00 0. -1.
      -24    2    1    2    0    0  0.00000000000E+00  0.00000000000E+00 -0.13139152731E+02  0.81591366139E+02  0.80526478216E+02 0.  0.
       11    1    3    3    0    0  0.32165976669E+02  0.12528101706E+02 -0.27568630855E+02  0.44177288222E+02  0.00000000000E+00 0. -1.
      -12    1    3    3    0    0 -0.32165976669E+02 -0.12528101706E+02  0.14429478124E+02  0.37414077917E+02  0.00000000000E+00 0.  1.
</event>
<event>
 5   1  0.6181100E+00  0.8119696E+02  0.7957747E-01  0.1324379E+00
       -2   -1    0    0    0  501  0.00000000000E+00  0.00000000000E+00  0.36917662483E+03  0.36917662483E+03  0.00000000000E+00 0.  1.
        1   -1    0    0  501    0  0.00000000000E+00  0.00000000000E+00 -0.44646285562E+01  0.44646285562E+01  0.00000000000E+00 0. -1.
      -24    2    1    2    0    0  0.00000000000E+00  0.00000000000E+00  0.36471199627E+03  0.37364125338E+03  0.81196958108E+02 0.  0.
       11    1    3    3    0    0 -0.30742644882E+02 -0.18577908597E+02  0.95289905970E+02  0.10183523497E+03  0.00000000000E+00 0. -1.
      -12    1    3    3    0    0  0.30742644882E+02  0.18577908597E+02  0.26942209030E+03  0.27180601841E+03  0.00000000000E+00 0.  1.
</event>
<event>
 5   1  0.6181100E+00  0.7910658E+02  0.7957747E-01  0.1329984E+00
        3   -1    0    0  501    0  0.00000000000E+00  0.00000000000E+00  0.68645896228E+02  0.68645896228E+02  0.00000000000E+00 0. -1.
       -4   -1    0    0    0  501  0.00000000000E+00  0.00000000000E+00 -0.22790334053E+02  0.22790334053E+02  0.00000000000E+00 0.  1.
      -24    2    1    2    0    0  0.00000000000E+00  0.00000000000E+00  0.45855562174E+02  0.91436230281E+02  0.79106583959E+02 0.  0.
       11    1    3    3    0    0  0.39828836971E+00  0.13688722071E+02  0.65818224333E+02  0.67227809721E+02  0.00000000000E+00 0. -1.
      -12    1    3    3    0    0 -0.39828836971E+00 -0.13688722071E+02 -0.19962662158E+02  0.24208420560E+02  0.00000000000E+00 0.  1.
</event>
<event>
 5   1  0.6181100E+00  0.7900371E+02  0.7957747E-01  0.1330265E+00
       -2   -1    0    0    0  501  0.00000000000E+00  0.00000000000E+00  0.50436491419E+02  0.50436491419E+02  0.00000000000E+00 0.  1.
        1   -1    0    0  501    0  0.00000000000E+00  0.00000000000E+00 -0.30937850724E+02  0.30937850724E+02  0.00000000000E+00 0. -1.
      -24    2    1    2    0    0  0.00000000000E+00  0.00000000000E+00  0.19498640695E+02  0.81374342144E+02  0.79003712383E+02 0.  0.
       11    1    3    3    0    0 -0.24828625165E+02 -0.21359558594E+02 -0.12997396228E+02  0.35236680883E+02  0.00000000000E+00 0. -1.
      -12    1    3    3    0    0  0.24828625165E+02  0.21359558594E+02  0.32496036923E+02  0.46137661261E+02  0.00000000000E+00 0.  1.
</event>
<event>
 5   1  0.6181100E+00  0.7465857E+02  0.7957747E-01  0.1342593E+00
        1   -1    0    0  501    0  0.00000000000E+00  0.00000000000E+00  0.79231173418E+01  0.79231173418E+01  0.00000000000E+00 0. -1.
       -2   -1    0    0    0  501  0.00000000000E+00  0.00000000000E+00 -0.17587463702E+03  0.17587463702E+03  0.00000000000E+00 0.  1.
      -24    2    1    2    0    0  0.00000000000E+00  0.00000000000E+00 -0.16795151968E+03  0.18379775436E+03  0.74658566463E+02 0.  0.
       11    1    3    3    0    0 -0.76084164233E+01  0.36533136175E+02 -0.86333671087E+02  0.94053499683E+02  0.00000000000E+00 0. -1.
      -12    1    3    3    0    0  0.76084164233E+01 -0.36533136175E+02 -0.81617848594E+02  0.89744254681E+02  0.00000000000E+00 0.  1.
</event>
<event>
 6   2  0.6181100E+00  0.9386713E+02  0.7957747E-01  0.1294056E+00
       -2   -1    0    0    0  501  0.00000000000E+00  0.00000000000E+00  0.21216361379E+03  0.21216361379E+03  0.00000000000E+00 0.  1.
        1   -1    0    0  502    0  0.00000000000E+00  0.00000000000E+00 -0.15654899784E+02  0.15654899784E+02  0.00000000000E+00 0. -1.
      -24    2    1    2    0    0  0.15511008601E+02 -0.13990793714E+02  0.16845419626E+03  0.19284152596E+03  0.91513409949E+02 0.  0.
       11    1    3    3    0    0  0.32501669046E+02 -0.27651221239E+02  0.28767396563E+02  0.51463692364E+02  0.00000000000E+00 0. -1.
      -12    1    3    3    0    0 -0.16990660445E+02  0.13660427525E+02  0.13968679970E+03  0.14137783360E+03  0.00000000000E+00 0.  1.
       21    1    1    2  502  501 -0.15511008601E+02  0.13990793714E+02  0.28054517740E+02  0.34976987609E+02  0.00000000000E+00 0. -1.
</event>
<event>
 5   1  0.6181100E+00  0.8068907E+02  0.7957747E-01  0.1325723E+00
       -4   -1    0    0    0  501  0.00000000000E+00  0.00000000000E+00  0.33661930336E+02  0.33661930336E+02  0.00000000000E+00 0.  1.
        3   -1    0    0  501    0  0.00000000000E+00  0.00000000000E+00 -0.48353781663E+02  0.48353781663E+02  0.00000000000E+00 0. -1.
      -24    2    1    2    0    0  0.00000000000E+00  0.00000000000E+00 -0.14691851328E+02  0.82015711999E+02  0.80689073109E+02 0.  0.
       11    1    3    3    0    0 -0.30485755349E+02  0.10943818417E+02 -0.31794102152E+02  0.45387370186E+02  0.00000000000E+00 0. -1.
      -12    1    3    3    0    0  0.30485755349E+02 -0.10943818417E+02  0.17102250825E+02  0.36628341813E+02  0.00000000000E+00 0.  1.
</event>
<event>
 5   1  0.6181100E+00  0.7930330E+02  0.7957747E-01  0.1329448E+00
        3   -1    0    0  501    0  0.00000000000E+00  0.00000000000E+00  0.50566006984E+02  0.50566006984E+02  0.00000000000E+00 0. -1.
       -4   -1    0    0    0  501  0.00000000000E+00  0.00000000000E+00 -0.31093086463E+02  0.31093086463E+02  0.00000000000E+00 0.  1.
      -24    2    1    2    0    0  0.00000000000E+00  0.00000000000E+00  0.19472920520E+02  0.81659093447E+02  0.79303296962E+02 0.  0.
       11    1    3    3    0    0 -0.15328734331E+02 -0.23935015505E+02  0.38205520325E+02  0.47618450696E+02  0.00000000000E+00 0. -1.
      -12    1    3    3    0    0  0.15328734331E+02  0.23935015505E+02 -0.18732599805E+02  0.34040642751E+02  0.00000000000E+00 0.  1.
</event>
<event>
 5   1  0.6181100E+00  0.8066236E+02  0.7957747E-01  0.1325794E+00
        1   -1    0    0  501    0  0.00000000000E+00  0.00000000000E+00  0.22991183250E+03  0.22991183250E+03  0.00000000000E+00 0. -1.
       -2   -1    0    0    0  501  0.00000000000E+00  0.00000000000E+00 -0.70749032909E+01  0.70749032909E+01  0.00000000000E+00 0.  1.
      -24    2    1    2    0    0  0.00000000000E+00  0.00000000000E+00  0.22283692921E+03  0.23698673579E+03  0.80662357524E+02 0.  0.
       11    1    3    3    0    0  0.17294955559E+01  0.35308897402E+02  0.16845630580E+03  0.17212564119E+03  0.00000000000E+00 0. -1.
      -12    1    3    3    0    0 -0.17294955559E+01 -0.35308897402E+02  0.54380623404E+02  0.64861094598E+02  0.00000000000E+00 0.  1.
</event>
<event>
 5   1  0.6181100E+00  0.8154886E+02  0.7957747E-01  0.1323454E+00
        3   -1    0    0  501    0  0.00000000000E+00  0.00000000000E+00  0.10756900175E+03  0.10756900175E+03  0.00000000000E+00 0. -1.
       -4   -1    0    0    0  501  0.00000000000E+00  0.00000000000E+00 -0.15455697481E+02  0.15455697481E+02  0.00000000000E+00 0.  1.
      -24    2    1    2    0    0  0.00000000000E+00  0.00000000000E+00  0.92113304268E+02  0.12302469923E+03  0.81548855279E+02 0.  0.
       11    1    3    3    0    0  0.72909478612E+00 -0.26367787218E+02  0.92963285797E+02  0.96633142804E+02  0.00000000000E+00 0. -1.
      -12    1    3    3    0    0 -0.72909478612E+00  0.26367787218E+02 -0.84998152893E+00  0.26391556426E+02  0.00000000000E+00 0.  1.
</event>
<event>
 6   2  0.6181100E+00  0.8326795E+02  0.7957747E-01  0.1319010E+00
       21   -1    0    0  501  502  0.00000000000E+00  0.00000000000E+00  0.33304187921E+02  0.33304187921E+02  0.00000000000E+00 0.  1.
       -2   -1    0    0    0  501  0.00000000000E+00  0.00000000000E+00 -0.14768844090E+03  0.14768844090E+03  0.00000000000E+00 0.  1.
      -24    2    1    2    0    0  0.63459227759E+01  0.19003282013E+02 -0.13082435021E+03  0.15507598821E+03  0.80821754810E+02 0.  0.
       11    1    3    3    0    0  0.48466497129E+00  0.32576074372E+02 -0.11064819782E+02  0.34407350354E+02  0.00000000000E+00 0. -1.
      -12    1    3    3    0    0  0.58612578046E+01 -0.13572792359E+02 -0.11975953042E+03  0.12066863786E+03  0.00000000000E+00 0.  1.
       -1    1    1    2    0  502 -0.63459227759E+01 -0.19003282013E+02  0.16440097231E+02  0.25916640602E+02  0.00000000000E+00 0.  1.
</event>
<event>
 5   1  0.6181100E+00  0.7772065E+02  0.7957747E-01  0.1333810E+00
        3   -1    0    0  501    0  0.00000000000E+00  0.00000000000E+00  0.29870569549E+02  0.29870569549E+02  0.00000000000E+00 0. -1.
       -4   -1    0    0    0  501  0.00000000000E+00  0.00000000000E+00 -0.50555611771E+02  0.50555611771E+02  0.00000000000E+00 0.  1.
      -24    2    1    2    0    0  0.00000000000E+00  0.00000000000E+00 -0.20685042222E+02  0.80426181320E+02  0.77720651502E+02 0.  0.
       11    1    3    3    0    0 -0.91929174548E+01 -0.29298846995E+02  0.14302338696E+02  0.33874607876E+02  0.00000000000E+00 0. -1.
      -12    1    3    3    0    0  0.91929174548E+01  0.29298846995E+02 -0.34987380918E+02  0.46551573444E+02  0.00000000000E+00 0.  1.
</event>
<event>
 6   2  0.6181100E+00  0.8212993E+02  0.7957747E-01  0.1321938E+00
       -2   -1    0    0    0  501  0.00000000000E+00  0.00000000000E+00  0.95759404720E+01  0.95759404720E+01  0.00000000000E+00 0.  1.
        1   -1    0    0  502    0  0.00000000000E+00  0.00000000000E+00 -0.32556202568E+03  0.32556202568E+03  0.00000000000E+00 0. -1.
      -24    2    1    2    0    0  0.47263148647E+01  0.22942167362E+02 -0.18997379450E+03  0.20696707045E+03  0.78718768783E+02 0.  0.
       11    1    3    3    0    0  0.31559320504E+02  0.33862380145E+02 -0.15384472810E+03  0.16065756087E+03  0.00000000000E+00 0. -1.
      -12    1    3    3    0    0 -0.26833005639E+02 -0.10920212784E+02 -0.36129066399E+02  0.46309509582E+02  0.00000000000E+00 0.  1.
       21    1    1    2  502  501 -0.47263148647E+01 -0.22942167362E+02 -0.12601229071E+03  0.12817089570E+03  0.00000000000E+00 0.  1.
</event>
<event>
 6   2  0.6181100E+00  0.8103332E+02  0.7957747E-01  0.1324811E+00
        1   -1    0    0  502    0  0.00000000000E+00  0.00000000000E+00  0.13020639331E+02  0.13020639331E+02  0.00000000000E+00 0. -1.
       21   -1    0    0  501  502  0.00000000000E+00  0.00000000000E+00 -0.79756702971E+03  0.79756702971E+03  0.00000000000E+00 0. -1.
      -24    2    1    2    0    0 -0.19360338340E+02 -0.90035424701E+01 -0.11489561796E+03  0.14059659188E+03  0.78169764895E+02 0.  0.
       11    1    3    3    0    0 -0.13567859030E+02  0.20730468108E+02 -0.33385619963E+01  0.24999702055E+02  0.00000000000E+00 0. -1.
      -12    1    3    3    0    0 -0.57924793102E+01 -0.29734010578E+02 -0.11155705597E+03  0.11559688983E+03  0.00000000000E+00 0.  1.
        2    1    1    2  501    0  0.19360338340E+02  0.90035424701E+01 -0.66965077241E+03  0.66999107716E+03  0.00000000000E+00 0. -1.
</event>
<event>
 5   1  0.6181100E+00  0.8575969E+02  0.7957747E-01  0.1312781E+00
       -4   -1    0    0    0  501  0.00000000000E+00  0.00000000000E+00  0.80111425424E+02  0.80111425424E+02  0.00000000000E+00 0.  1.
        3   -1    0    0  501    0  0.00000000000E+00  0.00000000000E+00 -0.22951546063E+02  0.22951546063E+02  0.00000000000E+00 0. -1.
      -24    2    1    2    0    0  0.00000000000E+00  0.00000000000E+00  0.57159879361E+02  0.10306297149E+03  0.85759689150E+02 0.  0.
       11    1    3    3    0    0  0.21331322483E+02  0.37141380408E+02  0.31035075759E+02  0.52893131736E+02  0.00000000000E+00 0. -1.
      -12    1    3    3    0    0 -0.21331322483E+02 -0.37141380408E+02  0.26124803602E+02  0.50169839751E+02  0.00000000000E+00 0.  1.
</event>
<event>
 4   3  0.6181100E+00  0.2390732E+03  0.7957747E-01  0.1127601E+00
       21   -1    0    0  501  502  0.00000000000E+00  0.00000000000E+00  0.78368099709E+03  0.78368099709E+03  0.00000000000E+00 0. -1.
       21   -1    0    0  502  503  0.00000000000E+00  0.00000000000E+00 -0.13312937792E+03  0.13312937792E+03  0.00000000000E+00 0. -1.
        6    1    1    2  501    0  0.22553559228E+02  0.16345748926E+03  0.63352265282E+03  0.67713142407E+03  0.17300000000E+03 0. -1.
       -6    1    1    2    0  503 -0.22553559228E+02 -0.16345748926E+03  0.17028966342E+02  0.23967895094E+03  0.17300000000E+03 0. -1.
</event>
<event>
 6   2  0.6181100E+00  0.8845943E+02  0.7957747E-01  0.1306295E+00
        3   -1    0    0  502    0  0.00000000000E+00  0.00000000000E+00  0.87675194058E+01  0.87675194058E+01  0.00000000000E+00 0. -1.
       21   -1    0    0  501  502  0.00000000000E+00  0.00000000000E+00 -0.60551850173E+03  0.60551850173E+03  0.00000000000E+00 0.  1.
      -24    2    1    2    0    0  0.40492537457E+02  0.99715575754E+00 -0.25022630896E+03  0.26540210182E+03  0.78641147268E+02 0.  0.
       11    1    3    3    0    0  0.18860528395E+02  0.30167363453E+02 -0.46950982689E+02  0.58908268728E+02  0.00000000000E+00 0. -1.
      -12    1    3    3    0    0  0.21632009062E+02 -0.29170207696E+02 -0.20327532627E+03  0.20649383309E+03  0.00000000000E+00 0.  1.
        4    1    1    2  501    0 -0.40492537457E+02 -0.99715575754E+00 -0.34652467336E+03  0.34888391932E+03  0.00000000000E+00 0. -1.
</event>
<event>
 5   1  0.6181100E+00  0.8037357E+02  0.7957747E-01  0.1326564E+00
        3   -1    0    0  501    0  0.00000000000E+00  0.00000000000E+00  0.31407570358E+02  0.31407570358E+02  0.00000000000E+00 0. -1.
       -4   -1    0    0    0  501  0.00000000000E+00  0.00000000000E+00 -0.51420007512E+02  0.51420007512E+02  0.00000000000E+00 0.  1.
      -24    2    1    2    0    0  0.00000000000E+00  0.00000000000E+00 -0.20012437154E+02  0.82827577870E+02  0.80373565399E+02 0.  0.
       11    1    3    3    0    0 -0.37308967135E+02 -0.14898282273E+02 -0.89453903191E+01  0.41157476250E+02  0.00000000000E+00 0. -1.
      -12    1    3    3    0    0  0.37308967135E+02  0.14898282273E+02 -0.11067046835E+02  0.41670101619E+02  0.00000000000E+00 0.  1.
</event>
<event>
 6   2  0.6181100E+00  0.1343451E+03  0.7957747E-01  0.1224722E+00
       21   -1    0    0  501  502  0.00000000000E+00  0.00000000000E+00  0.14135281047E+03  0.14135281047E+03  0.00000000000E+00 0. -1.
        1   -1    0    0  502    0  0.00000000000E+00  0.00000000000E+00 -0.16835181082E+03  0.16835181082E+03  0.00000000000E+00 0. -1.
      -24    2    1    2    0    0  0.91528417116E+02 -0.56011212472E+02 -0.11032906881E+03  0.17384216375E+03  0.80832465069E+02 0.  0.
       11    1    3    3    0    0  0.16294666692E+02 -0.34558683804E+02 -0.82306312433E+02  0.90742205479E+02  0.00000000000E+00 0. -1.
      -12    1    3    3    0    0  0.75233750424E+02 -0.21452528668E+02 -0.28022756378E+02  0.83099958268E+02  0.00000000000E+00 0.  1.
        2    1    1    2  501    0 -0.91528417116E+02  0.56011212472E+02  0.83330068458E+02  0.13586245755E+03  0.00000000000E+00 0. -1.
</event>
<event>
 5   1  0.6181100E+00  0.8012661E+02  0.7957747E-01  0.1327225E+00
        1   -1    0    0  501    0  0.00000000000E+00  0.00000000000E+00  0.26519843149E+03  0.26519843149E+03  0.00000000000E+00 0. -1.
       -2   -1    0    0    0  501  0.00000000000E+00  0.00000000000E+00 -0.60523300188E+01  0.60523300188E+01  0.00000000000E+00 0.  1.
      -24    2    1    2    0    0  0.00000000000E+00  0.00000000000E+00  0.25914610147E+03  0.27125076151E+03  0.80126610507E+02 0.  0.
       11    1    3    3    0    0 -0.37667981994E+02 -0.49503807467E+01  0.17261871860E+03  0.17675012065E+03  0.00000000000E+00 0. -1.
      -12    1    3    3    0    0  0.37667981994E+02  0.49503807467E+01  0.86527382865E+02  0.94500640858E+02  0.00000000000E+00 0.  1.
</event>
<event>
 5   1  0.6181100E+00  0.8770883E+02  0.7957747E-01  0.1308072E+00
        1   -1    0    0  501    0  0.00000000000E+00  0.00000000000E+00  0.13481639661E+03  0.13481639661E+03  0.00000000000E+00 0. -1.
       -2   -1    0    0    0  501  0.00000000000E+00  0.00000000000E+00 -0.14265399545E+02  0.14265399545E+02  0.00000000000E+00 0.  1.
      -24    2    1    2    0    0  0.00000000000E+00  0.00000000000E+00  0.12055099706E+03  0.14908179615E+03  0.87708831091E+02 0.  0.
       11    1    3    3    0    0  0.23241661866E+02 -0.20013587302E+02  0.11355321923E+03  0.11762249836E+03  0.00000000000E+00 0. -1.
      -12    1    3    3    0    0 -0.23241661866E+02  0.20013587302E+02  0.69977778315E+01  0.31459297792E+02  0.00000000000E+00 0.  1.
</event>
<event>
 6   2  0.6181100E+00  0.8940029E+02  0.7957747E-01  0.1304096E+00
       21   -1    0    0  501  502  0.00000000000E+00  0.00000000000E+00  0.73532217287E+02  0.73532217287E+02  0.00000000000E+00 0.  1.
        1   -1    0    0  502    0  0.00000000000E+00  0.00000000000E+00 -0.59206750941E+02  0.59206750941E+02  0.00000000000E+00 0. -1.
      -24    2    1    2    0    0 -0.80637975111E+01  0.37342938561E+02  0.25443421741E+02  0.92950416823E+02  0.80826309992E+02 0.  0.
       11    1    3    3    0    0 -0.40087609983E+01 -0.12452478531E+02 -0.20997405162E+02  0.24739147314E+02  0.00000000000E+00 0. -1.
      -12    1    3    3    0    0 -0.40550365128E+01  0.49795417092E+02  0.46440826903E+02  0.68211269509E+02  0.00000000000E+00 0.  1.
        2    1    1    2  501    0  0.80637975111E+01 -0.37342938561E+02 -0.11117955396E+02  0.39788551405E+02  0.00000000000E+00 0. -1.
</event>
<event>
 4   3  0.6181100E+00  0.2226628E+03  0.7957747E-01  0.1138743E+00
       -1   -1    0    0    0  501  0.00000000000E+00  0.00000000000E+00  0.53112174097E+02  0.53112174097E+02  0.00000000000E+00 0. -1.
        1   -1    0    0  502    0  0.00000000000E+00  0.00000000000E+00 -0.10147332847E+04  0.10147332847E+04  0.00000000000E+00 0.  1.
        6    1    1    2  502    0 -0.20439480795E+02 -0.13867932074E+03 -0.32971755374E+03  0.39785976376E+03  0.17300000000E+03 0. -1.
       -6    1    1    2    0  501  0.20439480795E+02  0.13867932074E+03 -0.63190355686E+03  0.66998569503E+03  0.17300000000E+03 0. -1.
</event>
<event>
 5   1  0.6181100E+00  0.7901025E+02  0.7957747E-01  0.1330247E+00
        1   -1    0    0  501    0  0.00000000000E+00  0.00000000000E+00  0.12296110935E+02  0.12296110935E+02  0.00000000000E+00 0. -1.
       -2   -1    0    0    0  501  0.00000000000E+00  0.00000000000E+00 -0.12692263662E+03  0.12692263662E+03  0.00000000000E+00 0.  1.
      -24    2    1    2    0    0  0.00000000000E+00  0.00000000000E+00 -0.11462652568E+03  0.13921874755E+03  0.79010247941E+02 0.  0.
       11    1    3    3    0    0  0.36261670581E+02  0.10167459399E+02 -0.78337573484E+02  0.86919856209E+02  0.00000000000E+00 0. -1.
      -12    1    3    3    0    0 -0.36261670581E+02 -0.10167459399E+02 -0.36288952197E+02  0.52298891341E+02  0.00000000000E+00 0.  1.
</event>
<event>
 5   1  0.6181100E+00  0.8001499E+02  0.7957747E-01  0.1327525E+00
        1   -1    0    0  501    0  0.00000000000E+00  0.00000000000E+00  0.12274669505E+03  0.12274669505E+03  0.00000000000E+00 0. -1.
       -2   -1    0    0    0  501  0.00000000000E+00  0.00000000000E+00 -0.13039858648E+02  0.13039858648E+02  0.00000000000E+00 0.  1.
      -24    2    1    2    0    0  0.00000000000E+00  0.00000000000E+00  0.10970683640E+03  0.13578655370E+03  0.80014987420E+02 0.  0.
       11    1    3    3    0    0 -0.13619375537E+02  0.36348657125E+02  0.71296712211E+02  0.81178404991E+02  0.00000000000E+00 0. -1.
      -12    1    3    3    0    0  0.13619375537E+02 -0.36348657125E+02  0.38410124189E+02  0.54608148705E+02  0.00000000000E+00 0.  1.
</event>
<event>
 4   3  0.6181100E+00  0.2185085E+03  0.7957747E-01  0.1141731E+00
       21   -1    0    0  503  502  0.00000000000E+00  0.00000000000E+00  0.11518367064E+03  0.11518367064E+03  0.00000000000E+00 0. -1.
       21   -1    0    0  501  503  0.00000000000E+00  0.00000000000E+00 -0.42072253586E+03  0.42072253586E+03  0.00000000000E+00 0.  1.
        6    1    1    2  501    0  0.13139320366E+03 -0.23511951204E+02 -0.18530288450E+03  0.28650156164E+03  0.17300000000E+03 0. -1.
       -6    1    1    2    0  502 -0.13139320366E+03  0.23511951204E+02 -0.12023598071E+03  0.24940464486E+03  0.17300000000E+03 0. -1.
</event>
<event>
 6   2  0.6181100E+00  0.8823252E+02  0.7957747E-01  0.1306830E+00
        1   -1    0    0  502    0  0.00000000000E+00  0.00000000000E+00  0.79242562773E+03  0.79242562773E+03  0.00000000000E+00 0. -1.
       -2   -1    0    0    0  501  0.00000000000E+00  0.00000000000E+00 -0.55443954486E+02  0.55443954486E+02  0.00000000000E+00 0.  1.
      -24    2    1    2    0    0 -0.21014670508E+01 -0.36461203451E+02 -0.19619456218E+02  0.90387500168E+02  0.80318999020E+02 0.  0.
       11    1    3    3    0    0 -0.12008933241E+02  0.17753817325E+01  0.26809467999E+02  0.29429815363E+02  0.00000000000E+00 0. -1.
      -12    1    3    3    0    0  0.99074661906E+01 -0.38236585184E+02 -0.46428924217E+02  0.60957684805E+02  0.00000000000E+00 0.  1.
       21    1    1    2  502  501  0.21014670508E+01  0.36461203451E+02  0.75660112946E+03  0.75748208205E+03  0.00000000000E+00 0. -1.
</event>
<event>
 5   1  0.6181100E+00  0.8023047E+02  0.7957747E-01  0.1326946E+00
        1   -1    0    0  501    0  0.00000000000E+00  0.00000000000E+00  0.22671249849E+02  0.22671249849E+02  0.00000000000E+00 0. -1.
       -2   -1    0    0    0  501  0.00000000000E+00  0.00000000000E+00 -0.70981189280E+02  0.70981189280E+02  0.00000000000E+00 0.  1.
      -24    2    1    2    0    0  0.00000000000E+00  0.00000000000E+00 -0.48309939431E+02  0.93652439129E+02  0.80230474927E+02 0.  0.
       11    1    3    3    0    0 -0.65355207934E+01  0.39506808149E+02 -0.26949497100E+02  0.48267756485E+02  0.00000000000E+00 0. -1.
      -12    1    3    3    0    0  0.65355207934E+01 -0.39506808149E+02 -0.21360442331E+02  0.45384682644E+02  0.00000000000E+00 0.  1.
</event>
<event>
 6   2  0.6181100E+00  0.8617781E+02  0.7957747E-01  0.1311759E+00
       21   -1    0    0  501  502  0.00000000000E+00  0.00000000000E+00  0.16618026033E+02  0.16618026033E+02  0.00000000000E+00 0. -1.
        3   -1    0    0  502    0  0.00000000000E+00  0.00000000000E+00 -0.23218670180E+03  0.23218670180E+03  0.00000000000E+00 0. -1.
      -24    2    1    2    0    0 -0.12146412300E+02 -0.24201767500E+02 -0.10955651405E+03  0.13938882719E+03  0.81812923751E+02 0.  0.
       11    1    3    3    0    0 -0.14790450910E+02 -0.42869739793E+02 -0.23087566684E+02  0.50888188840E+02  0.00000000000E+00 0. -1.
      -12    1    3    3    0    0  0.26440386099E+01  0.18667972292E+02 -0.86468947370E+02  0.88500638353E+02  0.00000000000E+00 0.  1.
        4    1    1    2  501    0  0.12146412300E+02  0.24201767500E+02 -0.10601216171E+03  0.10941590064E+03  0.00000000000E+00 0. -1.
</event>
<event>
 5   1  0.6181100E+00  0.6279061E+02  0.7957747E-01  0.1381782E+00
       -4   -1    0    0    0  501  0.00000000000E+00  0.00000000000E+00  0.47479370261E+02  0.47479370261E+02  0.00000000000E+00 0.  1.
        3   -1    0    0  501    0  0.00000000000E+00  0.00000000000E+00 -0.20759865034E+02  0.20759865034E+02  0.00000000000E+00 0. -1.
      -24    2    1    2    0    0  0.00000000000E+00  0.00000000000E+00  0.26719505226E+02  0.68239235295E+02  0.62790614538E+02 0.  0.
       11    1    3    3    0    0  0.18476241010E+02  0.14233771901E+02 -0.94804503253E+01  0.25176391377E+02  0.00000000000E+00 0. -1.
      -12    1    3    3    0    0 -0.18476241010E+02 -0.14233771901E+02  0.36199955552E+02  0.43062843918E+02  0.00000000000E+00 0.  1.
</event>
<event>
 5   1  0.6181100E+00  0.9217202E+02  0.7957747E-01  0.1297790E+00
        3   -1    0    0  501    0  0.00000000000E+00  0.00000000000E+00  0.20492060605E+03  0.20492060605E+03  0.00000000000E+00 0. -1.
       -4   -1    0    0    0  501  0.00000000000E+00  0.00000000000E+00 -0.10364600670E+02  0.10364600670E+02  0.00000000000E+00 0.  1.
      -24    2    1    2    0    0  0.00000000000E+00  0.00000000000E+00  0.19455600538E+03  0.21528520672E+03  0.92172018547E+02 0.  0.
       11    1    3    3    0    0  0.28865314590E+02 -0.11279134962E+02  0.17694846670E+03  0.17964182458E+03  0.00000000000E+00 0. -1.
      -12    1    3    3    0    0 -0.28865314590E+02  0.11279134962E+02  0.17607538681E+02  0.35643382139E+02  0.00000000000E+00 0.  1.
</event>
<event>
 5   1  0.6181100E+00  0.8159470E+02  0.7957747E-01  0.1323334E+00
        3   -1    0    0  501    0  0.00000000000E+00  0.00000000000E+00  0.19285627722E+02  0.19285627722E+02  0.00000000000E+00 0. -1.
       -4   -1    0    0    0  501  0.00000000000E+00  0.00000000000E+00 -0.86303849689E+02  0.86303849689E+02  0.00000000000E+00 0.  1.
      -24    2    1    2    0    0  0.00000000000E+00  0.00000000000E+00 -0.67018221967E+02  0.10558947741E+03  0.81594703654E+02 0.  0.
       11    1    3    3    0    0  0.35622542909E+02 -0.19381987198E+02 -0.39266923781E+02  0.56449254151E+02  0.00000000000E+00 0. -1.
      -12    1    3    3    0    0 -0.35622542909E+02  0.19381987198E+02 -0.27751298186E+02  0.49140223260E+02  0.00000000000E+00 0.  1.
</event>
<event>
 4   3  0.6181100E+00  0.1944578E+03  0.7957747E-01  0.1160585E+00
       21   -1    0    0  503  502  0.00000000000E+00  0.00000000000E+00  0.38757766176E+03  0.38757766176E+03  0.00000000000E+00 0.  1.
       21   -1    0    0  501  503  0.00000000000E+00  0.00000000000E+00 -0.10119044290E+03  0.10119044290E+03  0.00000000000E+00 0.  1.
        6    1    1    2  501    0  0.69713241349E+02 -0.54999019892E+02  0.96932883222E+02  0.21727819048E+03  0.17300000000E+03 0.  1.
       -6    1    1    2    0  502 -0.69713241349E+02  0.54999019892E+02  0.18945433563E+03  0.27148991418E+03  0.17300000000E+03 0.  1.
</event>
<event>
 5   1  0.6181100E+00  0.8189817E+02  0.7957747E-01  0.1322541E+00
        1   -1    0    0  501    0  0.00000000000E+00  0.00000000000E+00  0.38232408740E+02  0.38232408740E+02  0.00000000000E+00 0. -1.
       -2   -1    0    0    0  501  0.00000000000E+00  0.00000000000E+00 -0.43858795881E+02  0.43858795881E+02  0.00000000000E+00 0.  1.
      -24    2    1    2    0    0  0.00000000000E+00  0.00000000000E+00 -0.56263871411E+01  0.82091204620E+02  0.81898166303E+02 0.  0.
       11    1    3    3    0    0  0.12446619691E+02  0.30232187870E+02 -0.27527421878E+02  0.42739472159E+02  0.00000000000E+00 0. -1.
      -12    1    3    3    0    0 -0.12446619691E+02 -0.30232187870E+02  0.21901034737E+02  0.39351732462E+02  0.00000000000E+00 0.  1.
</event>
<event>
 5   1  0.6181100E+00  0.8567506E+02  0.7957747E-01  0.1312988E+00
        1   -1    0    0  501    0  0.00000000000E+00  0.00000000000E+00  0.10422138841E+03  0.10422138841E+03  0.00000000000E+00 0. -1.
       -2   -1    0    0    0  501  0.00000000000E+00  0.00000000000E+00 -0.17607270163E+02  0.17607270163E+02  0.00000000000E+00 0.  1.
      -24    2    1    2    0    0  0.00000000000E+00  0.00000000000E+00  0.86614118251E+02  0.12182865858E+03  0.85675063876E+02 0.  0.
       11    1    3    3    0    0  0.23942720465E+02 -0.81640617886E+01  0.92466387178E+02  0.95864167059E+02  0.00000000000E+00 0. -1.
      -12    1    3    3    0    0 -0.23942720465E+02  0.81640617886E+01 -0.58522689271E+01  0.25964491517E+02  0.00000000000E+00 0.  1.
</event>
<event>
 5   1  0.6181100E+00  0.8003769E+02  0.7957747E-01  0.1327464E+00
        3   -1    0    0  501    0  0.00000000000E+00  0.00000000000E+00  0.77865221220E+02  0.77865221220E+02  0.00000000000E+00 0. -1.
       -4   -1    0    0    0  501  0.00000000000E+00  0.00000000000E+00 -0.20567690981E+02  0.20567690981E+02  0.00000000000E+00 0.  1.
      -24    2    1    2    0    0  0.00000000000E+00  0.00000000000E+00  0.57297530239E+02  0.98432912201E+02  0.80037686329E+02 0.  0.
       11    1    3    3    0    0 -0.18383314691E+01 -0.12463458011E+02  0.75362807926E+02  0.76408573253E+02  0.00000000000E+00 0. -1.
      -12    1    3    3    0    0  0.18383314691E+01  0.12463458011E+02 -0.18065277687E+02  0.22024338948E+02  0.00000000000E+00 0.  1.
</event>
<event>
 5   1  0.6181100E+00  0.7985102E+02  0.7957747E-01  0.1327966E+00
        1   -1    0    0  501    0  0.00000000000E+00  0.00000000000E+00  0.39923209136E+02  0.39923209136E+02  0.00000000000E+00 0. -1.
       -2   -1    0    0    0  501  0.00000000000E+00  0.00000000000E+00 -0.39927813655E+02  0.39927813655E+02  0.00000000000E+00 0.  1.
      -24    2    1    2    0    0  0.00000000000E+00  0.00000000000E+00 -0.46045192245E-02  0.79851022791E+02  0.79851022658E+02 0.  0.
       11    1    3    3    0    0  0.36416364968E+02 -0.14853233302E+02 -0.68780769801E+01  0.39925907879E+02  0.00000000000E+00 0. -1.
      -12    1    3    3    0    0 -0.36416364968E+02  0.14853233302E+02  0.68734724609E+01  0.39925114912E+02  0.00000000000E+00 0.  1.
</event>
<event>
 6   2  0.6181100E+00  0.8195890E+02  0.7957747E-01  0.1322383E+00
       21   -1    0    0  501  502  0.00000000000E+00  0.00000000000E+00  0.58604938699E+02  0.58604938699E+02  0.00000000000E+00 0.  1.
        1   -1    0    0  502    0  0.00000000000E+00  0.00000000000E+00 -0.56183907933E+02  0.56183907933E+02  0.00000000000E+00 0. -1.
      -24    2    1    2    0    0  0.87200468214E+01 -0.20636322725E+02 -0.18627437673E+02  0.84049050668E+02  0.78837582737E+02 0.  0.
       11    1    3    3    0    0  0.39371340783E+02 -0.61164405717E+01 -0.28193057581E+02  0.48809443924E+02  0.00000000000E+00 0. -1.
      -12    1    3    3    0    0 -0.30651293962E+02 -0.14519882154E+02  0.95656199080E+01  0.35239606745E+02  0.00000000000E+00 0.  1.
        2    1    1    2  501    0 -0.87200468214E+01  0.20636322725E+02  0.21048468440E+02  0.30739795963E+02  0.00000000000E+00 0. -1.
</event>
<event>
 5   1  0.6181100E+00  0.7662294E+02  0.7957747E-01  0.1336905E+00
        3   -1    0    0  501    0  0.00000000000E+00  0.00000000000E+00  0.12276559533E+02  0.12276559533E+02  0.00000000000E+00 0. -1.
       -4   -1    0    0    0  501  0.00000000000E+00  0.00000000000E+00 -0.11955862810E+03  0.11955862810E+03  0.00000000000E+00 0.  1.
      -24    2    1    2    0    0  0.00000000000E+00  0.00000000000E+00 -0.10728206857E+03  0.13183518764E+03  0.76622936919E+02 0.  0.
       11    1    3    3    0    0  0.33160855201E+02 -0.13417787135E+02 -0.30044154684E+02  0.46715421008E+02  0.00000000000E+00 0. -1.
      -12    1    3    3    0    0 -0.33160855201E+02  0.13417787135E+02 -0.77237913886E+02  0.85119766627E+02  0.00000000000E+00 0.  1.
</event>
<event>
 6   2  0.6181100E+00  0.1019629E+03  0.7957747E-01  0.1277370E+00
       -4   -1    0    0    0  501  0.00000000000E+00  0.00000000000E+00  0.32962250972E+02  0.32962250972E+02  0.00000000000E+00 0.  1.
        3   -1    0    0  502    0  0.00000000000E+00  0.00000000000E+00 -0.22767238277E+03  0.22767238277E+03  0.00000000000E+00 0. -1.
      -24    2    1    2    0    0  0.52919339384E+02  0.37070708221E+02 -0.82530325895E+02  0.13117806674E+03  0.78877985593E+02 0.  0.
       11    1    3    3    0    0  0.22649361882E+02  0.26276848520E+02 -0.91464529544E+02  0.97822423434E+02  0.00000000000E+00 0. -1.
      -12    1    3    3    0    0  0.30269977502E+02  0.10793859701E+02  0.89342036484E+01  0.33355643302E+02  0.00000000000E+00 0.  1.
       21    1    1    2  502  501 -0.52919339384E+02 -0.37070708221E+02 -0.11217980591E+03  0.12945656701E+03  0.00000000000E+00 0. -1.
</event>
<event>
 6   2  0.6181100E+00  0.8772513E+02  0.7957747E-01  0.1308033E+00
       -2   -1    0    0    0  501  0.00000000000E+00  0.00000000000E+00  0.14327044984E+02  0.14327044984E+02  0.00000000000E+00 0.  1.
       21   -1    0    0  501  502  0.00000000000E+00  0.00000000000E+00 -0.25324269317E+03  0.25324269317E+03  0.00000000000E+00 0.  1.
      -24    2    1    2    0    0 -0.53680073119E+01 -0.28341931410E+02 -0.14650125597E+03  0.17075806289E+03  0.82846952046E+02 0.  0.
       11    1    3    3    0    0 -0.22381235960E+02  0.87178388138E+01 -0.11940777566E+03  0.12179957851E+03  0.00000000000E+00 0. -1.
      -12    1    3    3    0    0  0.17013228648E+02 -0.37059770224E+02 -0.27093480316E+02  0.48958484389E+02  0.00000000000E+00 0.  1.
       -1    1    1    2    0  502  0.53680073119E+01  0.28341931410E+02 -0.92414392210E+02  0.96811675257E+02  0.00000000000E+00 0.  1.
</event>
<event>
 6   2  0.6181100E+00  0.8394216E+02  0.7957747E-01  0.1317301E+00
       -2   -1    0    0    0  501  0.00000000000E+00  0.00000000000E+00  0.12059592140E+02  0.12059592140E+02  0.00000000000E+00 0.  1.
        1   -1    0    0  502    0  0.00000000000E+00  0.00000000000E+00 -0.24205420276E+03  0.24205420276E+03  0.00000000000E+00 0. -1.
      -24    2    1    2    0    0  0.19419376503E+02  0.88162347493E+01 -0.20328492645E+03  0.21993418976E+03  0.81187735071E+02 0.  0.
       11    1    3    3    0    0  0.40147255422E+02  0.28574578426E+02 -0.16450512092E+03  0.17172723563E+03  0.00000000000E+00 0. -1.
      -12    1    3    3    0    0 -0.20727878919E+02 -0.19758343677E+02 -0.38779805532E+02  0.48206954129E+02  0.00000000000E+00 0.  1.
       21    1    1    2  502  501 -0.19419376503E+02 -0.88162347493E+01 -0.26709684171E+02  0.34179605139E+02  0.00000000000E+00 0. -1.
</event>
<event>
 5   1  0.6181100E+00  0.8092088E+02  0.7957747E-01  0.1325108E+00
       -4   -1    0    0    0  501  0.00000000000E+00  0.00000000000E+00  0.14573686490E+03  0.14573686490E+03  0.00000000000E+00 0.  1.
        3   -1    0    0  501    0  0.00000000000E+00  0.00000000000E+00 -0.11232898289E+02  0.11232898289E+02  0.00000000000E+00 0. -1.
      -24    2    1    2    0    0  0.00000000000E+00  0.00000000000E+00  0.13450396661E+03  0.15696976319E+03  0.80920884336E+02 0.  0.
       11    1    3    3    0    0  0.41386421286E+01 -0.38922798168E+02  0.47381192017E+02  0.61458033916E+02  0.00000000000E+00 0. -1.
      -12    1    3    3    0    0 -0.41386421286E+01  0.38922798168E+02  0.87122774594E+02  0.95511729274E+02  0.00000000000E+00 0.  1.
</event>
<event>
 6   2  0.6181100E+00  0.9193406E+02  0.7957747E-01  0.1298322E+00
       -2   -1    0    0    0  501  0.00000000000E+00  0.00000000000E+00  0.10026728261E+02  0.10026728261E+02  0.00000000000E+00 0.  1.
        1   -1    0    0  502    0  0.00000000000E+00  0.00000000000E+00 -0.35246529130E+03  0.35246529130E+03  0.00000000000E+00 0. -1.
      -24    2    1    2    0    0  0.24625829868E+02  0.42001741852E+01 -0.23880510760E+03  0.25589011505E+03  0.88474847291E+02 0.  0.
       11    1    3    3    0    0  0.46533059682E+02 -0.90026014170E+01 -0.21749133633E+03  0.22259571841E+03  0.00000000000E+00 0. -1.
      -12    1    3    3    0    0 -0.21907229814E+02  0.13202775602E+02 -0.21313771269E+02  0.33294396637E+02  0.00000000000E+00 0.  1.
       21    1    1    2  502  501 -0.24625829868E+02 -0.42001741852E+01 -0.10363345544E+03  0.10660190451E+03  0.00000000000E+00 0.  1.
</event>
<event>
 4   3  0.6181100E+00  0.2448549E+03  0.7957747E-01  0.1123906E+00
        2   -1    0    0  502    0  0.00000000000E+00  0.00000000000E+00  0.68513166227E+03  0.68513166227E+03  0.00000000000E+00 0. -1.
       -2   -1    0    0    0  501  0.00000000000E+00  0.00000000000E+00 -0.89571147802E+02  0.89571147802E+02  0.00000000000E+00 0.  1.
        6    1    1    2  502    0  0.16029224226E+03 -0.65812754903E+02  0.23898053187E+03  0.34214852951E+03  0.17300000000E+03 0.  1.
       -6    1    1    2    0  501 -0.16029224226E+03  0.65812754903E+02  0.35657998260E+03  0.43255428056E+03  0.17300000000E+03 0. -1.
</event>
<event>
 6   2  0.6181100E+00  0.8374570E+02  0.7957747E-01  0.1317797E+00
        1   -1    0    0  502    0  0.00000000000E+00  0.00000000000E+00  0.18978349540E+02  0.18978349540E+02  0.00000000000E+00 0. -1.
       21   -1    0    0  501  502  0.00000000000E+00  0.00000000000E+00 -0.17000842600E+03  0.17000842600E+03  0.00000000000E+00 0.  1.
      -24    2    1    2    0    0 -0.14732858534E+02 -0.19319883952E+02 -0.88210455187E+02  0.12163234099E+03  0.80143789117E+02 0.  0.
       11    1    3    3    0    0  0.15189460694E+02 -0.42673612361E+02 -0.54506807865E+02  0.70871355369E+02  0.00000000000E+00 0. -1.
      -12    1    3    3    0    0 -0.29922319227E+02  0.23353728409E+02 -0.33703647322E+02  0.50760985622E+02  0.00000000000E+00 0.  1.
        2    1    1    2  501    0  0.14732858534E+02  0.19319883952E+02 -0.62819621272E+02  0.67354434548E+02  0.00000000000E+00 0. -1.
</event>
<event>
 5   1  0.6181100E+00  0.8005391E+02  0.7957747E-01  0.1327420E+00
       -2   -1    0    0    0  501  0.00000000000E+00  0.00000000000E+00  0.10433853606E+03  0.10433853606E+03  0.00000000000E+00 0.  1.
        1   -1    0    0  501    0  0.00000000000E+00  0.00000000000E+00 -0.15355374606E+02  0.15355374606E+02  0.00000000000E+00 0. -1.
      -24    2    1    2    0    0  0.00000000000E+00  0.00000000000E+00  0.88983161458E+02  0.11969391067E+03  0.80053914510E+02 0.  0.
       11    1    3    3    0    0  0.16819250031E+02 -0.25847851837E+02  0.63382107314E+01  0.31482876798E+02  0.00000000000E+00 0. -1.
      -12    1    3    3    0    0 -0.16819250031E+02  0.25847851837E+02  0.82644950726E+02  0.88211033872E+02  0.00000000000E+00 0.  1.
</event>
<event>
 5   1  0.6181100E+00  0.1089952E+03  0.7957747E-01  0.1264228E+00
       -2   -1    0    0    0  501  0.00000000000E+00  0.00000000000E+00  0.29919004541E+02  0.29919004541E+02  0.00000000000E+00 0.  1.
        1   -1    0    0  501    0  0.00000000000E+00  0.00000000000E+00 -0.99267609199E+02  0.99267609199E+02  0.00000000000E+00 0. -1.
      -24    2    1    2    0    0  0.00000000000E+00  0.00000000000E+00 -0.69348604658E+02  0.12918661374E+03  0.10899519348E+03 0.  0.
       11    1    3    3    0    0  0.11991531694E+02 -0.27437447760E+02 -0.88643924452E+02  0.93564714045E+02  0.00000000000E+00 0. -1.
      -12    1    3    3    0    0 -0.11991531694E+02  0.27437447760E+02  0.19295319794E+02  0.35621899696E+02  0.00000000000E+00 0.  1.
</event>
<event>
 4   1  0.6181100E+00  0.3766738E+02  0.7957747E-01  0.1512058E+00
        3   -1    0    0  501    0  0.00000000000E+00  0.00000000000E+00  0.23337433148E+02  0.23337433148E+02  0.00000000000E+00 0. -1.
       -4   -1    0    0    0  501  0.00000000000E+00  0.00000000000E+00 -0.15199091926E+02  0.15199091926E+02  0.00000000000E+00 0.  1.
       11    1    1    2    0    0  0.16472893173E+02 -0.88078757904E+01  0.65272983354E+01  0.19787382570E+02  0.00000000000E+00 0. -1.
      -12    1    1    2    0    0 -0.16472893173E+02  0.88078757904E+01  0.16110428867E+01  0.18749142503E+02  0.00000000000E+00 0.  1.
</event>
<event>
 5   1  0.6181100E+00  0.8076983E+02  0.7957747E-01  0.1325508E+00
        1   -1    0    0  501    0  0.00000000000E+00  0.00000000000E+00  0.71520621959E+02  0.71520621959E+02  0.00000000000E+00 0. -1.
       -2   -1    0    0    0  501  0.00000000000E+00  0.00000000000E+00 -0.22803789559E+02  0.22803789559E+02  0.00000000000E+00 0.  1.
      -24    2    1    2    0    0  0.00000000000E+00  0.00000000000E+00  0.48716832400E+02  0.94324411518E+02  0.80769826353E+02 0.  0.
       11    1    3    3    0    0 -0.15667596700E+02  0.13933623085E+02  0.64666253311E+02  0.67980465988E+02  0.00000000000E+00 0. -1.
      -12    1    3    3    0    0  0.15667596700E+02 -0.13933623085E+02 -0.15949420911E+02  0.26343945529E+02  0.00000000000E+00 0.  1.
</event>
<event>
 5   1  0.6181100E+00  0.7828895E+02  0.7957747E-01  0.1332231E+00
        1   -1    0    0  501    0  0.00000000000E+00  0.00000000000E+00  0.11614340017E+03  0.11614340017E+03  0.00000000000E+00 0. -1.
       -2   -1    0    0    0  501  0.00000000000E+00  0.00000000000E+00 -0.13193088144E+02  0.13193088144E+02  0.00000000000E+00 0.  1.
      -24    2    1    2    0    0  0.00000000000E+00  0.00000000000E+00  0.10295031203E+03  0.12933648832E+03  0.78288954926E+02 0.  0.
       11    1    3    3    0    0  0.92596135780E+01 -0.30460961649E+02  0.89099601319E+02  0.94616856761E+02  0.00000000000E+00 0. -1.
      -12    1    3    3    0    0 -0.92596135780E+01  0.30460961649E+02  0.13850710709E+02  0.34719631556E+02  0.00000000000E+00 0.  1.
</event>
<event>
 5   1  0.6181100E+00  0.7682200E+02  0.7957747E-01  0.1336340E+00
       -2   -1    0    0    0  501  0.00000000000E+00  0.00000000000E+00  0.15291406571E+02  0.15291406571E+02  0.00000000000E+00 0.  1.
        1   -1    0    0  501    0  0.00000000000E+00  0.00000000000E+00 -0.96485898981E+02  0.96485898981E+02  0.00000000000E+00 0. -1.
      -24    2    1    2    0    0  0.00000000000E+00  0.00000000000E+00 -0.81194492410E+02  0.11177730555E+03  0.76822004912E+02 0.  0.
       11    1    3    3    0    0  0.22828281107E+02 -0.22985361505E+01 -0.85420062743E+02  0.88447729229E+02  0.00000000000E+00 0. -1.
      -12    1    3    3    0    0 -0.22828281107E+02  0.22985361505E+01  0.42255703333E+01  0.23329576323E+02  0.00000000000E+00 0.  1.
</event>
<event>
 6   2  0.6181100E+00  0.9113718E+02  0.7957747E-01  0.1300115E+00
       -2   -1    0    0    0  501  0.00000000000E+00  0.00000000000E+00  0.41078577683E+03  0.41078577683E+03  0.00000000000E+00 0.  1.
        1   -1    0    0  502    0  0.00000000000E+00  0.00000000000E+00 -0.13930132305E+02  0.13930132305E+02  0.00000000000E+00 0. -1.
      -24    2    1    2    0    0 -0.24075242521E+02 -0.33320978771E+02  0.15843745807E+03  0.18277968497E+03  0.81339290571E+02 0.  0.
       11    1    3    3    0    0 -0.29322862070E+02 -0.35530705331E+02  0.16658621065E+03  0.17283873073E+03  0.00000000000E+00 0. -1.
      -12    1    3    3    0    0  0.52476195487E+01  0.22097265597E+01 -0.81487525882E+01  0.99409542369E+01  0.00000000000E+00 0.  1.
       21    1    1    2  502  501  0.24075242521E+02  0.33320978771E+02  0.23841818645E+03  0.24193622416E+03  0.00000000000E+00 0.  1.
</event>
<event>
 6   2  0.6181100E+00  0.9434239E+02  0.7957747E-01  0.1293025E+00
       21   -1    0    0  501  502  0.00000000000E+00  0.00000000000E+00  0.35948256776E+02  0.35948256776E+02  0.00000000000E+00 0. -1.
       -2   -1    0    0    0  501  0.00000000000E+00  0.00000000000E+00 -0.14977428560E+03  0.14977428560E+03  0.00000000000E+00 0.  1.
      -24    2    1    2    0    0 -0.19888981739E+02  0.40445590706E+02 -0.10238168752E+03  0.13922103326E+03  0.82879845314E+02 0.  0.
       11    1    3    3    0    0 -0.35736361182E+02  0.20596910217E+02 -0.86964393134E+01  0.42153864328E+02  0.00000000000E+00 0. -1.
      -12    1    3    3    0    0  0.15847379443E+02  0.19848680489E+02 -0.93685248205E+02  0.97067168928E+02  0.00000000000E+00 0.  1.
       -1    1    1    2    0  502  0.19888981739E+02 -0.40445590706E+02 -0.11444341301E+02  0.46501509116E+02  0.00000000000E+00 0.  1.
</event>
<event>
 4   1  0.6181100E+00  0.3491592E+02  0.7957747E-01  0.1533519E+00
       -2   -1    0    0    0  501  0.00000000000E+00  0.00000000000E+00  0.62410532801E+01  0.62410532801E+01  0.00000000000E+00 0.  1.
        1   -1    0    0  501    0  0.00000000000E+00  0.00000000000E+00 -0.48834771091E+02  0.48834771091E+02  0.00000000000E+00 0. -1.
       11    1    1    2    0    0 -0.15855138673E+01  0.11381534017E+02 -0.42027746700E+02  0.43570456315E+02  0.00000000000E+00 0. -1.
      -12    1    1    2    0    0  0.15855138673E+01 -0.11381534017E+02 -0.56597111058E+00  0.11505368056E+02  0.00000000000E+00 0.  1.
</event>
<event>
 5   1  0.6181100E+00  0.8150109E+02  0.7957747E-01  0.1323579E+00
       -2   -1    0    0    0  501  0.00000000000E+00  0.00000000000E+00  0.12374680944E+02  0.12374680944E+02  0.00000000000E+00 0.  1.
        1   -1    0    0  501    0  0.00000000000E+00  0.00000000000E+00 -0.13419390456E+03  0.13419390456E+03  0.00000000000E+00 0. -1.
      -24    2    1    2    0    0  0.00000000000E+00  0.00000000000E+00 -0.12181922362E+03  0.14656858551E+03  0.81501085972E+02 0.  0.
       11    1    3    3    0    0  0.31084726174E+02  0.26341306092E+02 -0.59660887256E+02  0.72246426044E+02  0.00000000000E+00 0. -1.
      -12    1    3    3    0    0 -0.31084726174E+02 -0.26341306092E+02 -0.62158336363E+02  0.74322159464E+02  0.00000000000E+00 0.  1.
</event>
<event>
 6   2  0.6181100E+00  0.8451910E+02  0.7957747E-01  0.1315852E+00
       21   -1    0    0  501  502  0.00000000000E+00  0.00000000000E+00  0.12725470849E+03  0.12725470849E+03  0.00000000000E+00 0. -1.
        1   -1    0    0  502    0  0.00000000000E+00  0.00000000000E+00 -0.21467066635E+03  0.21467066635E+03  0.00000000000E+00 0. -1.
      -24    2    1    2    0    0  0.21758403275E+02 -0.50086461024E+01 -0.20526250606E+03  0.22198237349E+03  0.81516643056E+02 0.  0.
       11    1    3    3    0    0  0.37541957280E+02 -0.24958936498E+02 -0.63029438555E+02  0.77492304083E+02  0.00000000000E+00 0. -1.
      -12    1    3    3    0    0 -0.15783554005E+02  0.19950290395E+02 -0.14223306751E+03  0.14449006940E+03  0.00000000000E+00 0.  1.
        2    1    1    2  501    0 -0.21758403275E+02  0.50086461024E+01  0.11784654821E+03  0.11994300135E+03  0.00000000000E+00 0. -1.
</event>
<event>
 5   1  0.6181100E+00  0.7735472E+02  0.7957747E-01  0.1334835E+00
       -2   -1    0    0    0  501  0.00000000000E+00  0.00000000000E+00  0.72238151130E+02  0.72238151130E+02  0.00000000000E+00 0.  1.
        1   -1    0    0  501    0  0.00000000000E+00  0.00000000000E+00 -0.20708420514E+02  0.20708420514E+02  0.00000000000E+00 0. -1.
      -24    2    1    2    0    0  0.00000000000E+00  0.00000000000E+00  0.51529730616E+02  0.92946571644E+02  0.77354715713E+02 0.  0.
       11    1    3    3    0    0  0.40591868346E+01  0.36974782334E+02  0.13030196222E+02  0.39413164552E+02  0.00000000000E+00 0. -1.
      -12    1    3    3    0    0 -0.40591868346E+01 -0.36974782334E+02  0.38499534394E+02  0.53533407093E+02  0.00000000000E+00 0.  1.
</event>
<event>
 5   1  0.6181100E+00  0.7917032E+02  0.7957747E-01  0.1329811E+00
       -4   -1    0    0    0  501  0.00000000000E+00  0.00000000000E+00  0.15232462986E+03  0.15232462986E+03  0.00000000000E+00 0.  1.
        3   -1    0    0  501    0  0.00000000000E+00  0.00000000000E+00 -0.10287140608E+02  0.10287140608E+02  0.00000000000E+00 0. -1.
      -24    2    1    2    0    0  0.00000000000E+00  0.00000000000E+00  0.14203748925E+03  0.16261177047E+03  0.79170319829E+02 0.  0.
       11    1    3    3    0    0  0.15448227054E+02 -0.34992877897E+02  0.50089052072E+02  0.63024299759E+02  0.00000000000E+00 0. -1.
      -12    1    3    3    0    0 -0.15448227054E+02  0.34992877897E+02  0.91948437176E+02  0.99587470707E+02  0.00000000000E+00 0.  1.
</event>
<event>
 5   1  0.6181100E+00  0.8064400E+02  0.7957747E-01  0.1325843E+00
       -2   -1    0    0    0  501  0.00000000000E+00  0.00000000000E+00  0.24987492984E+02  0.24987492984E+02  0.00000000000E+00 0.  1.
        1   -1    0    0  501    0  0.00000000000E+00  0.00000000000E+00 -0.65067091754E+02  0.65067091754E+02  0.00000000000E+00 0. -1.
      -24    2    1    2    0    0  0.00000000000E+00  0.00000000000E+00 -0.40079598770E+02  0.90054584738E+02  0.80643995405E+02 0.  0.
       11    1    3    3    0    0  0.11426966893E+02  0.36767254778E+02 -0.33414821732E+02  0.50979965748E+02  0.00000000000E+00 0. -1.
      -12    1    3    3    0    0 -0.11426966893E+02 -0.36767254778E+02 -0.66647770380E+01  0.39074618990E+02  0.00000000000E+00 0.  1.
</event>
<event>
 5   1  0.6181100E+00  0.7730978E+02  0.7957747E-01  0.1334962E+00
        3   -1    0    0  501    0  0.00000000000E+00  0.00000000000E+00  0.53869445306E+02  0.53869445306E+02  0.00000000000E+00 0. -1.
       -4   -1    0    0    0  501  0.00000000000E+00  0.00000000000E+00 -0.27737440228E+02  0.27737440228E+02  0.00000000000E+00 0.  1.
      -24    2    1    2    0    0  0.00000000000E+00  0.00000000000E+00  0.26132005078E+02  0.81606885534E+02  0.77309779958E+02 0.  0.
       11    1    3    3    0    0 -0.23858909077E+02  0.30328472133E+02  0.10673586010E+02  0.40037347597E+02  0.00000000000E+00 0. -1.
      -12    1    3    3    0    0  0.23858909077E+02 -0.30328472133E+02  0.15458419068E+02  0.41569537938E+02  0.00000000000E+00 0.  1.
</event>
<event>
 5   1  0.6181100E+00  0.8057027E+02  0.7957747E-01  0.1326039E+00
        1   -1    0    0  501    0  0.00000000000E+00  0.00000000000E+00  0.10042417114E+03  0.10042417114E+03  0.00000000000E+00 0. -1.
       -2   -1    0    0    0  501  0.00000000000E+00  0.00000000000E+00 -0.16160372479E+02  0.16160372479E+02  0.00000000000E+00 0.  1.
      -24    2    1    2    0    0  0.00000000000E+00  0.00000000000E+00  0.84263798660E+02  0.11658454362E+03  0.80570267755E+02 0.  0.
       11    1    3    3    0    0 -0.30344752246E+02 -0.39750262103E+01  0.80038873219E+02  0.85690291447E+02  0.00000000000E+00 0. -1.
      -12    1    3    3    0    0  0.30344752246E+02  0.39750262103E+01  0.42249254417E+01  0.30894252171E+02  0.00000000000E+00 0.  1.
</event>
<event>
 5   1  0.6181100E+00  0.7985254E+02  0.7957747E-01  0.1327962E+00
        1   -1    0    0  501    0  0.00000000000E+00  0.00000000000E+00  0.25962828558E+01  0.25962828558E+01  0.00000000000E+00 0. -1.
       -2   -1    0    0    0  501  0.00000000000E+00  0.00000000000E+00 -0.61399592745E+03  0.61399592745E+03  0.00000000000E+00 0.  1.
      -24    2    1    2    0    0  0.00000000000E+00  0.00000000000E+00 -0.61139964460E+03  0.61659221031E+03  0.79852541599E+02 0.  0.
       11    1    3    3    0    0  0.18898827836E+02 -0.31646971162E+02 -0.18722602242E+03  0.19082001978E+03  0.00000000000E+00 0. -1.
      -12    1    3    3    0    0 -0.18898827836E+02  0.31646971162E+02 -0.42417362218E+03  0.42577219053E+03  0.00000000000E+00 0.  1.
</event>
<event>
 5   1  0.6181100E+00  0.7931723E+02  0.7957747E-01  0.1329411E+00
        1   -1    0    0  501    0  0.00000000000E+00  0.00000000000E+00  0.10182837409E+02  0.10182837409E+02  0.00000000000E+00 0. -1.
       -2   -1    0    0    0  501  0.00000000000E+00  0.00000000000E+00 -0.15445654035E+03  0.15445654035E+03  0.00000000000E+00 0.  1.
      -24    2    1    2    0    0  0.00000000000E+00  0.00000000000E+00 -0.14427370294E+03  0.16463937776E+03  0.79317232355E+02 0.  0.
       11    1    3    3    0    0 -0.26245388834E+02 -0.25187426290E+02 -0.39344682084E+02  0.53583867782E+02  0.00000000000E+00 0. -1.
      -12    1    3    3    0    0  0.26245388834E+02  0.25187426290E+02 -0.10492902086E+03  0.11105550998E+03  0.00000000000E+00 0.  1.
</event>
<event>
 5   1  0.6181100E+00  0.8051005E+02  0.7957747E-01  0.1326199E+00
       -4   -1    0    0    0  501  0.00000000000E+00  0.00000000000E+00  0.15220819853E+03  0.15220819853E+03  0.00000000000E+00 0.  1.
        3   -1    0    0  501    0  0.00000000000E+00  0.00000000000E+00 -0.10646385525E+02  0.10646385525E+02  0.00000000000E+00 0. -1.
      -24    2    1    2    0    0  0.00000000000E+00  0.00000000000E+00  0.14156181301E+03  0.16285458406E+03  0.80510053078E+02 0.  0.
       11    1    3    3    0    0  0.29633561137E+02 -0.11533450957E+02  0.20850510630E+02  0.38025152599E+02  0.00000000000E+00 0. -1.
      -12    1    3    3    0    0 -0.29633561137E+02  0.11533450957E+02  0.12071130238E+03  0.12482943146E+03  0.00000000000E+00 0.  1.
</event>
<event>
 4   1  0.6181100E+00  0.4887343E+02  0.7957747E-01  0.1442733E+00
        3   -1    0    0  501    0  0.00000000000E+00  0.00000000000E+00  0.81703078715E+02  0.81703078715E+02  0.00000000000E+00 0. -1.
       -4   -1    0    0    0  501  0.00000000000E+00  0.00000000000E+00 -0.73088193793E+01  0.73088193793E+01  0.00000000000E+00 0.  1.
       11    1    1    2    0    0  0.15425424908E+02  0.83777359551E+00  0.71681661268E+02  0.73327390246E+02  0.00000000000E+00 0. -1.
      -12    1    1    2    0    0 -0.15425424908E+02 -0.83777359551E+00  0.27125980684E+01  0.15684507849E+02  0.00000000000E+00 0.  1.
</event>
<event>
 5   1  0.6181100E+00  0.8080823E+02  0.7957747E-01  0.1325407E+00
        1   -1    0    0  501    0  0.00000000000E+00  0.00000000000E+00  0.26344713989E+02  0.26344713989E+02  0.00000000000E+00 0. -1.
       -2   -1    0    0    0  501  0.00000000000E+00  0.00000000000E+00 -0.61966598607E+02  0.61966598607E+02  0.00000000000E+00 0.  1.
      -24    2    1    2    0    0  0.00000000000E+00  0.00000000000E+00 -0.35621884618E+02  0.88311312597E+02  0.80808225255E+02 0.  0.
       11    1    3    3    0    0  0.58527425360E+01 -0.39862305276E+02 -0.21131902761E+02  0.45495222732E+02  0.00000000000E+00 0. -1.
      -12    1    3    3    0    0 -0.58527425360E+01  0.39862305276E+02 -0.14489981857E+02  0.42816089865E+02  0.00000000000E+00 0.  1.
</event>
<event>
 6   2  0.6181100E+00  0.8251845E+02  0.7957747E-01  0.1320933E+00
       -2   -1    0    0    0  501  0.00000000000E+00  0.00000000000E+00  0.29276467560E+03  0.29276467560E+03  0.00000000000E+00 0.  1.
       21   -1    0    0  501  502  0.00000000000E+00  0.00000000000E+00 -0.11436653013E+02  0.11436653013E+02  0.00000000000E+00 0.  1.
      -24    2    1    2    0    0 -0.15000725891E+02 -0.17964873292E+02  0.25910284930E+03  0.27192569110E+03  0.79129871174E+02 0.  0.
       11    1    3    3    0    0  0.37350328112E+01 -0.44102216356E+02  0.96398787346E+02  0.10607394666E+03  0.00000000000E+00 0. -1.
      -12    1    3    3    0    0 -0.18735758702E+02  0.26137343064E+02  0.16270406196E+03  0.16585174444E+03  0.00000000000E+00 0.  1.
       -1    1    1    2    0  502  0.15000725891E+02  0.17964873292E+02  0.22225173288E+02  0.32275637520E+02  0.00000000000E+00 0.  1.
</event>
<event>
 5   1  0.6181100E+00  0.8031391E+02  0.7957747E-01  0.1326723E+00
        1   -1    0    0  501    0  0.00000000000E+00  0.00000000000E+00  0.11495364484E+03  0.11495364484E+03  0.00000000000E+00 0. -1.
       -2   -1    0    0    0  501  0.00000000000E+00  0.00000000000E+00 -0.14028098662E+02  0.14028098662E+02  0.00000000000E+00 0.  1.
      -24    2    1    2    0    0  0.00000000000E+00  0.00000000000E+00  0.10092554618E+03  0.12898174350E+03  0.80313910911E+02 0.  0.
       11    1    3    3    0    0  0.25299267270E+01  0.31571360766E+02  0.90108764638E+02  0.95513040023E+02  0.00000000000E+00 0. -1.
      -12    1    3    3    0    0 -0.25299267270E+01 -0.31571360766E+02  0.10816781542E+02  0.33468703482E+02  0.00000000000E+00 0.  1.
</event>
<event>
 5   1  0.6181100E+00  0.8336385E+02  0.7957747E-01  0.1318766E+00
       -4   -1    0    0    0  501  0.00000000000E+00  0.00000000000E+00  0.19891079098E+03  0.19891079098E+03  0.00000000000E+00 0.  1.
        3   -1    0    0  501    0  0.00000000000E+00  0.00000000000E+00 -0.87344836183E+01  0.87344836183E+01  0.00000000000E+00 0. -1.
      -24    2    1    2    0    0  0.00000000000E+00  0.00000000000E+00  0.19017630736E+03  0.20764527459E+03  0.83363854164E+02 0.  0.
       11    1    3    3    0    0 -0.37387238646E+02 -0.75428261036E+00  0.49226516516E+02  0.61819288933E+02  0.00000000000E+00 0. -1.
      -12    1    3    3    0    0  0.37387238646E+02  0.75428261036E+00  0.14094979084E+03  0.14582598566E+03  0.00000000000E+00 0.  1.
</event>
<event>
 5   1  0.6181100E+00  0.6564893E+02  0.7957747E-01  0.1371488E+00
        1   -1    0    0  501    0  0.00000000000E+00  0.00000000000E+00  0.73003277533E+02  0.73003277533E+02  0.00000000000E+00 0. -1.
       -2   -1    0    0    0  501  0.00000000000E+00  0.00000000000E+00 -0.14758866297E+02  0.14758866297E+02  0.00000000000E+00 0.  1.
      -24    2    1    2    0    0  0.00000000000E+00  0.00000000000E+00  0.58244411236E+02  0.87762143830E+02  0.65648933345E+02 0.  0.
       11    1    3    3    0    0 -0.12320421162E+02 -0.27637218900E+02  0.46128841510E+02  0.55167732101E+02  0.00000000000E+00 0. -1.
      -12    1    3    3    0    0  0.12320421162E+02  0.27637218900E+02  0.12115569726E+02  0.32594411729E+02  0.00000000000E+00 0.  1.
</event>
<event>
 5   1  0.6181100E+00  0.8051094E+02  0.7957747E-01  0.1326197E+00
       -2   -1    0    0    0  501  0.00000000000E+00  0.00000000000E+00  0.69725598569E+02  0.69725598569E+02  0.00000000000E+00 0.  1.
        1   -1    0    0  501    0  0.00000000000E+00  0.00000000000E+00 -0.23241144171E+02  0.23241144171E+02  0.00000000000E+00 0. -1.
      -24    2    1    2    0    0  0.00000000000E+00  0.00000000000E+00  0.46484454398E+02  0.92966742740E+02  0.80510935624E+02 0.  0.
       11    1    3    3    0    0 -0.28977331685E+02  0.14404143726E+02  0.50891132819E+02  0.60308146280E+02  0.00000000000E+00 0. -1.
      -12    1    3    3    0    0  0.28977331685E+02 -0.14404143726E+02 -0.44066784213E+01  0.32658596460E+02  0.00000000000E+00 0.  1.
</event>
<event>
 5   1  0.6181100E+00  0.8106102E+02  0.7957747E-01  0.1324737E+00
       -4   -1    0    0    0  501  0.00000000000E+00  0.00000000000E+00  0.82532060876E+02  0.82532060876E+02  0.00000000000E+00 0.  1.
        3   -1    0    0  501    0  0.00000000000E+00  0.00000000000E+00 -0.19904050059E+02  0.19904050059E+02  0.00000000000E+00 0. -1.
      -24    2    1    2    0    0  0.00000000000E+00  0.00000000000E+00  0.62628010816E+02  0.10243611093E+03  0.81061020748E+02 0.  0.
       11    1    3    3    0    0  0.37104569956E+02 -0.13303765249E+02  0.19393504360E+02  0.43930027234E+02  0.00000000000E+00 0. -1.
      -12    1    3    3    0    0 -0.37104569956E+02  0.13303765249E+02  0.43234506457E+02  0.58506083701E+02  0.00000000000E+00 0.  1.
</event>
<event>
 6   2  0.6181100E+00  0.9526471E+02  0.7957747E-01  0.1291043E+00
        1   -1    0    0  502    0  0.00000000000E+00  0.00000000000E+00  0.17381440880E+03  0.17381440880E+03  0.00000000000E+00 0. -1.
       21   -1    0    0  501  502  0.00000000000E+00  0.00000000000E+00 -0.44788375362E+02  0.44788375362E+02  0.00000000000E+00 0. -1.
      -24    2    1    2    0    0 -0.36972274336E+02  0.39831914958E+02  0.13357540213E+03  0.16406630761E+03  0.78242154365E+02 0.  0.
       11    1    3    3    0    0 -0.54935004881E+02  0.37981818255E+02  0.12926863557E+03  0.14550207359E+03  0.00000000000E+00 0. -1.
      -12    1    3    3    0    0  0.17962730545E+02  0.18500967030E+01  0.43067665689E+01  0.18564234019E+02  0.00000000000E+00 0.  1.
        2    1    1    2  501    0  0.36972274336E+02 -0.39831914958E+02 -0.45493686957E+01  0.54536476549E+02  0.00000000000E+00 0. -1.
</event>
<event>
 5   1  0.6181100E+00  0.7970560E+02  0.7957747E-01  0.1328358E+00
       -2   -1    0    0    0  501  0.00000000000E+00  0.00000000000E+00  0.33655953233E+02  0.33655953233E+02  0.00000000000E+00 0.  1.
        1   -1    0    0  501    0  0.00000000000E+00  0.00000000000E+00 -0.47190629531E+02  0.47190629531E+02  0.00000000000E+00 0. -1.
      -24    2    1    2    0    0  0.00000000000E+00  0.00000000000E+00 -0.13534676298E+02  0.80846582764E+02  0.79705598813E+02 0.  0.
       11    1    3    3    0    0 -0.18696514307E+02  0.27302025609E+02 -0.29295302849E+02  0.44194739716E+02  0.00000000000E+00 0. -1.
      -12    1    3    3    0    0  0.18696514307E+02 -0.27302025609E+02  0.15760626551E+02  0.36651843048E+02  0.00000000000E+00 0.  1.
</event>
<event>
 6   2  0.6181100E+00  0.8384569E+02  0.7957747E-01  0.1317544E+00
       21   -1    0    0  501  502  0.00000000000E+00  0.00000000000E+00  0.73118367647E+03  0.73118367647E+03  0.00000000000E+00 0. -1.
        1   -1    0    0  502    0  0.00000000000E+00  0.00000000000E+00 -0.33735571665E+02  0.33735571665E+02  0.00000000000E+00 0. -1.
      -24    2    1    2    0    0 -0.22613554707E+02 -0.46786738254E+01  0.18863001430E+02  0.85941335852E+02  0.80602962351E+02 0.  0.
       11    1    3    3    0    0 -0.38554215963E+02 -0.33379488068E+02  0.10582696322E+02  0.52082734698E+02  0.00000000000E+00 0. -1.
      -12    1    3    3    0    0  0.15940661255E+02  0.28700814242E+02  0.82803051079E+01  0.33858601154E+02  0.00000000000E+00 0.  1.
        2    1    1    2  501    0  0.22613554707E+02  0.46786738254E+01  0.67858510337E+03  0.67897791228E+03  0.00000000000E+00 0. -1.
</event>
<event>
 5   1  0.6181100E+00  0.8015848E+02  0.7957747E-01  0.1327139E+00
       -2   -1    0    0    0  501  0.00000000000E+00  0.00000000000E+00  0.10386759365E+02  0.10386759365E+02  0.00000000000E+00 0.  1.
        1   -1    0    0  501    0  0.00000000000E+00  0.00000000000E+00 -0.15465317964E+03  0.15465317964E+03  0.00000000000E+00 0. -1.
      -24    2    1    2    0    0  0.00000000000E+00  0.00000000000E+00 -0.14426642027E+03  0.16503993900E+03  0.80158477078E+02 0.  0.
       11    1    3    3    0    0  0.18779647969E+02 -0.16397999294E+02 -0.13674448071E+03  0.13899864231E+03  0.00000000000E+00 0. -1.
      -12    1    3    3    0    0 -0.18779647969E+02  0.16397999294E+02 -0.75219395617E+01  0.26041296693E+02  0.00000000000E+00 0.  1.
</event>
<event>
 4   3  0.6181100E+00  0.2501719E+03  0.7957747E-01  0.1120605E+00
        1   -1    0    0  502    0  0.00000000000E+00  0.00000000000E+00  0.33946195106E+03  0.33946195106E+03  0.00000000000E+00 0. -1.
       -1   -1    0    0    0  501  0.00000000000E+00  0.00000000000E+00 -0.18530445874E+03  0.18530445874E+03  0.00000000000E+00 0.  1.
        6    1    1    2  502    0 -0.17639922000E+03 -0.39246728635E+02  0.58428270146E+02  0.25690436601E+03  0.17300000000E+03 0. -1.
       -6    1    1    2    0  501  0.17639922000E+03  0.39246728635E+02  0.95729222174E+02  0.26786204379E+03  0.17300000000E+03 0.  1.
</event>
<event>
 5   1  0.6181100E+00  0.8027960E+02  0.7957747E-01  0.1326815E+00
       -4   -1    0    0    0  501  0.00000000000E+00  0.00000000000E+00  0.96911276023E+02  0.96911276023E+02  0.00000000000E+00 0.  1.
        3   -1    0    0  501    0  0.00000000000E+00  0.00000000000E+00 -0.16625552099E+02  0.16625552099E+02  0.00000000000E+00 0. -1.
      -24    2    1    2    0    0  0.00000000000E+00  0.00000000000E+00  0.80285723923E+02  0.11353682812E+03  0.80279598119E+02 0.  0.
       11    1    3    3    0    0  0.23291347386E+01  0.24426214449E+02 -0.47840932819E+01  0.24999047371E+02  0.00000000000E+00 0. -1.
      -12    1    3    3    0    0 -0.23291347386E+01 -0.24426214449E+02  0.85069817205E+02  0.88537780751E+02  0.00000000000E+00 0.  1.
</event>
<event>
 5   1  0.6181100E+00  0.7993106E+02  0.7957747E-01  0.1327750E+00
       -2   -1    0    0    0  501  0.00000000000E+00  0.00000000000E+00  0.58064738585E+01  0.58064738585E+01  0.00000000000E+00 0.  1.
        1   -1    0    0  501    0  0.00000000000E+00  0.00000000000E+00 -0.27507978853E+03  0.27507978853E+03  0.00000000000E+00 0. -1.
      -24    2    1    2    0    0  0.00000000000E+00  0.00000000000E+00 -0.26927331467E+03  0.28088626239E+03  0.79931060323E+02 0.  0.
       11    1    3    3    0    0 -0.41979393168E+01 -0.37632642054E+02 -0.89715823773E+02  0.97379502349E+02  0.00000000000E+00 0. -1.
      -12    1    3    3    0    0  0.41979393168E+01  0.37632642054E+02 -0.17955749090E+03  0.18350676004E+03  0.00000000000E+00 0.  1.
</event>
<event>
 5   1  0.6181100E+00  0.8639466E+02  0.7957747E-01  0.1311231E+00
        3   -1    0    0  501    0  0.00000000000E+00  0.00000000000E+00  0.11708573139E+03  0.11708573139E+03  0.00000000000E+00 0. -1.
       -4   -1    0    0    0  501  0.00000000000E+00  0.00000000000E+00 -0.15937120258E+02  0.15937120258E+02  0.00000000000E+00 0.  1.
      -24    2    1    2    0    0  0.00000000000E+00  0.00000000000E+00  0.10114861113E+03  0.13302285164E+03  0.86394661445E+02 0.  0.
       11    1    3    3    0    0  0.14624550672E+02 -0.31395210134E+02  0.90323700506E+02  0.96736278483E+02  0.00000000000E+00 0. -1.
      -12    1    3    3    0    0 -0.14624550672E+02  0.31395210134E+02  0.10824910622E+02  0.36286573160E+02  0.00000000000E+00 0.  1.
</event>
<event>
 6   2  0.6181100E+00  0.1140182E+03  0.7957747E-01  0.1255502E+00
       21   -1    0    0  501  502  0.00000000000E+00  0.00000000000E+00  0.24962876246E+02  0.24962876246E+02  0.00000000000E+00 0.  1.
       -2   -1    0    0    0  501  0.00000000000E+00  0.00000000000E+00 -0.44413312707E+03  0.44413312707E+03  0.00000000000E+00 0.  1.
      -24    2    1    2    0    0 -0.50644639377E+02 -0.64916998966E+02 -0.32278988123E+03  0.34233531581E+03  0.78873726788E+02 0.  0.
       11    1    3    3    0    0  0.11193062372E+02 -0.22106162837E+02 -0.25017234562E+02  0.35211207105E+02  0.00000000000E+00 0. -1.
      -12    1    3    3    0    0 -0.61837701749E+02 -0.42810836129E+02 -0.29777264666E+03  0.30712410871E+03  0.00000000000E+00 0.  1.
       -1    1    1    2    0  502  0.50644639377E+02  0.64916998966E+02 -0.96380369594E+02  0.12676068750E+03  0.00000000000E+00 0.  1.
</event>
<event>
 5   1  0.6181100E+00  0.8309785E+02  0.7957747E-01  0.1319445E+00
        3   -1    0    0  501    0  0.00000000000E+00  0.00000000000E+00  0.11406646558E+02  0.11406646558E+02  0.00000000000E+00 0. -1.
       -4   -1    0    0    0  501  0.00000000000E+00  0.00000000000E+00 -0.15134273708E+03  0.15134273708E+03  0.00000000000E+00 0.  1.
      -24    2    1    2    0    0  0.00000000000E+00  0.00000000000E+00 -0.13993609053E+03  0.16274938364E+03  0.83097848612E+02 0.  0.
       11    1    3    3    0    0  0.25623730356E+02 -0.32152448875E+02 -0.81712282900E+02  0.91472688288E+02  0.00000000000E+00 0. -1.
      -12    1    3    3    0    0 -0.25623730356E+02  0.32152448875E+02 -0.58223807626E+02  0.71276695353E+02  0.00000000000E+00 0.  1.
</event>
<event>
 6   2  0.6181100E+00  0.7907918E+02  0.7957747E-01  0.1330059E+00
       21   -1    0    0  501  502  0.00000000000E+00  0.00000000000E+00  0.31379113222E+03  0.31379113222E+03  0.00000000000E+00 0. -1.
        1   -1    0    0  502    0  0.00000000000E+00  0.00000000000E+00 -0.87314206322E+02  0.87314206322E+02  0.00000000000E+00 0. -1.
      -24    2    1    2    0    0  0.30100507845E+02  0.86493349497E+01 -0.68408099150E+02  0.10456186860E+03  0.72613117053E+02 0.  0.
       11    1    3    3    0    0  0.32635343927E+01  0.26807069926E+02 -0.66876569506E+02  0.72123125304E+02  0.00000000000E+00 0. -1.
      -12    1    3    3    0    0  0.26836973453E+02 -0.18157734976E+02 -0.15315296444E+01  0.32438743296E+02  0.00000000000E+00 0.  1.
        2    1    1    2  501    0 -0.30100507845E+02 -0.86493349497E+01  0.29488502505E+03  0.29654346994E+03  0.00000000000E+00 0. -1.
</event>
<event>
 4   3  0.6181100E+00  0.1819970E+03  0.7957747E-01  0.1171572E+00
       21   -1    0    0  503  502  0.00000000000E+00  0.00000000000E+00  0.11755934500E+03  0.11755934500E+03  0.00000000000E+00 0.  1.
       21   -1    0    0  501  503  0.00000000000E+00  0.00000000000E+00 -0.29498594441E+03  0.29498594441E+03  0.00000000000E+00 0.  1.
        6    1    1    2  501    0  0.51051685183E+02  0.24240930512E+02 -0.45027386305E+02  0.18748430011E+03  0.17300000000E+03 0.  1.
       -6    1    1    2    0  502 -0.51051685183E+02 -0.24240930512E+02 -0.13239921310E+03  0.22506098929E+03  0.17300000000E+03 0.  1.
</event>
<event>
 5   1  0.6181100E+00  0.8012735E+02  0.7957747E-01  0.1327223E+00
       -2   -1    0    0    0  501  0.00000000000E+00  0.00000000000E+00  0.78128348594E+02  0.78128348594E+02  0.00000000000E+00 0.  1.
        1   -1    0    0  501    0  0.00000000000E+00  0.00000000000E+00 -0.20544375996E+02  0.20544375996E+02  0.00000000000E+00 0. -1.
      -24    2    1    2    0    0  0.00000000000E+00  0.00000000000E+00  0.57583972597E+02  0.98672724590E+02  0.80127352870E+02 0.  0.
       11    1    3    3    0    0  0.21304549570E+02  0.13406943343E+02 -0.95902805955E+01  0.26937027380E+02  0.00000000000E+00 0. -1.
      -12    1    3    3    0    0 -0.21304549570E+02 -0.13406943343E+02  0.67174253193E+02  0.71735697210E+02  0.00000000000E+00 0.  1.
</event>
<event>
 6   2  0.6181100E+00  0.8849599E+02  0.7957747E-01  0.1306209E+00
        1   -1    0    0  502    0  0.00000000000E+00  0.00000000000E+00  0.71235310207E+03  0.71235310207E+03  0.00000000000E+00 0. -1.
       21   -1    0    0  501  502  0.00000000000E+00  0.00000000000E+00 -0.57802541513E+01  0.57802541513E+01  0.00000000000E+00 0. -1.
      -24    2    1    2    0    0  0.20736404271E+02 -0.31796068948E+02  0.43406928959E+03  0.44299852062E+03  0.79940932186E+02 0.  0.
       11    1    3    3    0    0  0.91474082225E+01 -0.16102172245E+02  0.15997887231E+02  0.24472176529E+02  0.00000000000E+00 0. -1.
      -12    1    3    3    0    0  0.11588996049E+02 -0.15693896702E+02  0.41807140236E+03  0.41852634409E+03  0.00000000000E+00 0.  1.
        2    1    1    2  501    0 -0.20736404271E+02  0.31796068948E+02  0.27250355833E+03  0.27513483560E+03  0.00000000000E+00 0. -1.
</event>
<event>
 5   1  0.6181100E+00  0.9019719E+02  0.7957747E-01  0.1302257E+00
        1   -1    0    0  501    0  0.00000000000E+00  0.00000000000E+00  0.29880915366E+02  0.29880915366E+02  0.00000000000E+00 0. -1.
       -2   -1    0    0    0  501  0.00000000000E+00  0.00000000000E+00 -0.68066295436E+02  0.68066295436E+02  0.00000000000E+00 0.  1.
      -24    2    1    2    0    0  0.00000000000E+00  0.00000000000E+00 -0.38185380070E+02  0.97947210802E+02  0.90197188718E+02 0.  0.
       11    1    3    3    0    0 -0.98480924478E+01  0.26383816648E+02  0.19158826044E+02  0.34060994130E+02  0.00000000000E+00 0. -1.
      -12    1    3    3    0    0  0.98480924478E+01 -0.26383816648E+02 -0.57344206114E+02  0.63886216671E+02  0.00000000000E+00 0.  1.
</event>
<event>
 5   1  0.6181100E+00  0.7811916E+02  0.7957747E-01  0.1332701E+00
       -2   -1    0    0    0  501  0.00000000000E+00  0.00000000000E+00  0.18908328738E+03  0.18908328738E+03  0.00000000000E+00 0.  1.
        1   -1    0    0  501    0  0.00000000000E+00  0.00000000000E+00 -0.80686701216E+01  0.80686701216E+01  0.00000000000E+00 0. -1.
      -24    2    1    2    0    0  0.00000000000E+00  0.00000000000E+00  0.18101461726E+03  0.19715195750E+03  0.78119156969E+02 0.  0.
       11    1    3    3    0    0 -0.13456197929E+02  0.24199015083E+02  0.20979056999E+02  0.34738774104E+02  0.00000000000E+00 0. -1.
      -12    1    3    3    0    0  0.13456197929E+02 -0.24199015083E+02  0.16003556026E+03  0.16241318340E+03  0.00000000000E+00 0.  1.
</event>
<event>
 5   1  0.6181100E+00  0.8110449E+02  0.7957747E-01  0.1324623E+00
       -2   -1    0    0    0  501  0.00000000000E+00  0.00000000000E+00  0.27946587434E+02  0.27946587434E+02  0.00000000000E+00 0.  1.
        1   -1    0    0  501    0  0.00000000000E+00  0.00000000000E+00 -0.58843841642E+02  0.58843841642E+02  0.00000000000E+00 0. -1.
      -24    2    1    2    0    0  0.00000000000E+00  0.00000000000E+00 -0.30897254208E+02  0.86790429076E+02  0.81104489775E+02 0.  0.
       11    1    3    3    0    0  0.38989938680E+02  0.10761535553E+02 -0.18560889275E+02  0.44503174903E+02  0.00000000000E+00 0. -1.
      -12    1    3    3    0    0 -0.38989938680E+02 -0.10761535553E+02 -0.12336364933E+02  0.42287254173E+02  0.00000000000E+00 0.  1.
</event>
<event>
 5   1  0.6181100E+00  0.8006381E+02  0.7957747E-01  0.1327393E+00
       -2   -1    0    0    0  501  0.00000000000E+00  0.00000000000E+00  0.56555037637E+01  0.56555037637E+01  0.00000000000E+00 0.  1.
        1   -1    0    0  501    0  0.00000000000E+00  0.00000000000E+00 -0.28336173847E+03  0.28336173847E+03  0.00000000000E+00 0. -1.
      -24    2    1    2    0    0  0.00000000000E+00  0.00000000000E+00 -0.27770623471E+03  0.28901724224E+03  0.80063809013E+02 0.  0.
       11    1    3    3    0    0 -0.36783203763E+02  0.11677100975E+01 -0.81984073259E+02  0.89865209586E+02  0.00000000000E+00 0. -1.
      -12    1    3    3    0    0  0.36783203763E+02 -0.11677100975E+01 -0.19572216145E+03  0.19915203265E+03  0.00000000000E+00 0.  1.
</event>
<event>
 5   1  0.6181100E+00  0.7929649E+02  0.7957747E-01  0.1329467E+00
       -4   -1    0    0    0  501  0.00000000000E+00  0.00000000000E+00  0.17318956307E+02  0.17318956307E+02  0.00000000000E+00 0.  1.
        3   -1    0    0  501    0  0.00000000000E+00  0.00000000000E+00 -0.90766622122E+02  0.90766622122E+02  0.00000000000E+00 0. -1.
      -24    2    1    2    0    0  0.00000000000E+00  0.00000000000E+00 -0.73447665815E+02  0.10808557843E+03  0.79296485739E+02 0.  0.
       11    1    3    3    0    0  0.35443230506E+02 -0.87353685927E+00 -0.60915587537E+02  0.70481873275E+02  0.00000000000E+00 0. -1.
      -12    1    3    3    0    0 -0.35443230506E+02  0.87353685927E+00 -0.12532078278E+02  0.37603705154E+02  0.00000000000E+00 0.  1.
</event>
<event>
 5   1  0.6181100E+00  0.7896389E+02  0.7957747E-01  0.1330374E+00
        1   -1    0    0  501    0  0.00000000000E+00  0.00000000000E+00  0.65056297580E+02  0.65056297580E+02  0.00000000000E+00 0. -1.
       -2   -1    0    0    0  501  0.00000000000E+00  0.00000000000E+00 -0.23961153190E+02  0.23961153190E+02  0.00000000000E+00 0.  1.
      -24    2    1    2    0    0  0.00000000000E+00  0.00000000000E+00  0.41095144389E+02  0.89017450770E+02  0.78963888260E+02 0.  0.
       11    1    3    3    0    0  0.30172583219E+02 -0.20309174167E+02  0.37864907979E+02  0.52503319797E+02  0.00000000000E+00 0. -1.
      -12    1    3    3    0    0 -0.30172583219E+02  0.20309174167E+02  0.32302364098E+01  0.36514130973E+02  0.00000000000E+00 0.  1.
</event>
<event>
 5   1  0.6181100E+00  0.8049292E+02  0.7957747E-01  0.1326245E+00
        3   -1    0    0  501    0  0.00000000000E+00  0.00000000000E+00  0.27767393121E+01  0.27767393121E+01  0.00000000000E+00 0. -1.
       -4   -1    0    0    0  501  0.00000000000E+00  0.00000000000E+00 -0.58333794301E+03  0.58333794301E+03  0.00000000000E+00 0.  1.
      -24    2    1    2    0    0  0.00000000000E+00  0.00000000000E+00 -0.58056120370E+03  0.58611468233E+03  0.80492916424E+02 0.  0.
       11    1    3    3    0    0  0.83563872385E+01 -0.27402032969E+02 -0.84445616366E+02  0.89172656919E+02  0.00000000000E+00 0. -1.
      -12    1    3    3    0    0 -0.83563872385E+01  0.27402032969E+02 -0.49611558734E+03  0.49694202541E+03  0.00000000000E+00 0.  1.
</event>
<event>
 5   1  0.6181100E+00  0.8067086E+02  0.7957747E-01  0.1325771E+00
       -2   -1    0    0    0  501  0.00000000000E+00  0.00000000000E+00  0.33155459622E+02  0.33155459622E+02  0.00000000000E+00 0.  1.
        1   -1    0    0  501    0  0.00000000000E+00  0.00000000000E+00 -0.49070254078E+02  0.49070254078E+02  0.00000000000E+00 0. -1.
      -24    2    1    2    0    0  0.00000000000E+00  0.00000000000E+00 -0.15914794456E+02  0.82225713699E+02  0.80670857878E+02 0.  0.
       11    1    3    3    0    0  0.14903749669E+02 -0.21708103845E+01 -0.46096675198E+02  0.48494717612E+02  0.00000000000E+00 0. -1.
      -12    1    3    3    0    0 -0.14903749669E+02  0.21708103845E+01  0.30181880742E+02  0.33730996088E+02  0.00000000000E+00 0.  1.
</event>
<event>
 5   1  0.6181100E+00  0.8009348E+02  0.7957747E-01  0.1327314E+00
       -2   -1    0    0    0  501  0.00000000000E+00  0.00000000000E+00  0.41496727566E+03  0.41496727566E+03  0.00000000000E+00 0.  1.
        1   -1    0    0  501    0  0.00000000000E+00  0.00000000000E+00 -0.38647420849E+01  0.38647420849E+01  0.00000000000E+00 0. -1.
      -24    2    1    2    0    0  0.00000000000E+00  0.00000000000E+00  0.41110253357E+03  0.41883201774E+03  0.80093482733E+02 0.  0.
       11    1    3    3    0    0  0.34959504219E+02 -0.60799769273E+01  0.10847665779E+03  0.11413289771E+03  0.00000000000E+00 0. -1.
      -12    1    3    3    0    0 -0.34959504219E+02  0.60799769273E+01  0.30262587578E+03  0.30469912003E+03  0.00000000000E+00 0.  1.
</event>
<event>
 5   1  0.6181100E+00  0.7947884E+02  0.7957747E-01  0.1328972E+00
        1   -1    0    0  501    0  0.00000000000E+00  0.00000000000E+00  0.12136359349E+02  0.12136359349E+02  0.00000000000E+00 0. -1.
       -2   -1    0    0    0  501  0.00000000000E+00  0.00000000000E+00 -0.13012316470E+03  0.13012316470E+03  0.00000000000E+00 0.  1.
      -24    2    1    2    0    0  0.00000000000E+00  0.00000000000E+00 -0.11798680535E+03  0.14225952405E+03  0.79478839613E+02 0.  0.
       11    1    3    3    0    0 -0.21209994249E+02  0.57479988924E+01  0.27157613678E+00  0.21976739997E+02  0.00000000000E+00 0. -1.
      -12    1    3    3    0    0  0.21209994249E+02 -0.57479988924E+01 -0.11825838149E+03  0.12028278406E+03  0.00000000000E+00 0.  1.
</event>
<event>
 5   1  0.6181100E+00  0.7961284E+02  0.7957747E-01  0.1328609E+00
        1   -1    0    0  501    0  0.00000000000E+00  0.00000000000E+00  0.32347997515E+02  0.32347997515E+02  0.00000000000E+00 0. -1.
       -2   -1    0    0    0  501  0.00000000000E+00  0.00000000000E+00 -0.48984524191E+02  0.48984524191E+02  0.00000000000E+00 0.  1.
      -24    2    1    2    0    0  0.00000000000E+00  0.00000000000E+00 -0.16636526676E+02  0.81332521706E+02  0.79612844863E+02 0.  0.
       11    1    3    3    0    0  0.22189225061E+02 -0.32483340789E+02 -0.21022521032E+01  0.39394778861E+02  0.00000000000E+00 0. -1.
      -12    1    3    3    0    0 -0.22189225061E+02  0.32483340789E+02 -0.14534274573E+02  0.41937742845E+02  0.00000000000E+00 0.  1.
</event>
<event>
 5   1  0.6181100E+00  0.8108521E+02  0.7957747E-01  0.1324674E+00
        1   -1    0    0  501    0  0.00000000000E+00  0.00000000000E+00  0.23338869112E+02  0.23338869112E+02  0.00000000000E+00 0. -1.
       -2   -1    0    0    0  501  0.00000000000E+00  0.00000000000E+00 -0.70427690002E+02  0.70427690002E+02  0.00000000000E+00 0.  1.
      -24    2    1    2    0    0  0.00000000000E+00  0.00000000000E+00 -0.47088820890E+02  0.93766559114E+02  0.81085205527E+02 0.  0.
       11    1    3    3    0    0 -0.11156113355E+02  0.34612831568E+02 -0.28195700486E+01  0.36475429396E+02  0.00000000000E+00 0. -1.
      -12    1    3    3    0    0  0.11156113355E+02 -0.34612831568E+02 -0.44269250842E+02  0.57291129718E+02  0.00000000000E+00 0.  1.
</event>
<event>
 6   2  0.6181100E+00  0.8551056E+02  0.7957747E-01  0.1313393E+00
        1   -1    0    0  502    0  0.00000000000E+00  0.00000000000E+00  0.18381005348E+03  0.18381005348E+03  0.00000000000E+00 0. -1.
       21   -1    0    0  501  502  0.00000000000E+00  0.00000000000E+00 -0.21940238828E+02  0.21940238828E+02  0.00000000000E+00 0. -1.
      -24    2    1    2    0    0  0.23626215979E+02  0.21110909793E+02  0.14850183182E+03  0.17136175412E+03  0.79424102929E+02 0.  0.
       11    1    3    3    0    0  0.38793462353E+02  0.38444351076E+02  0.13250381489E+03  0.14331839314E+03  0.00000000000E+00 0. -1.
      -12    1    3    3    0    0 -0.15167246374E+02 -0.17333441283E+02  0.15998016930E+02  0.28043360979E+02  0.00000000000E+00 0.  1.
        2    1    1    2  501    0 -0.23626215979E+02 -0.21110909793E+02  0.13367982825E+02  0.34388538187E+02  0.00000000000E+00 0. -1.
</event>
<event>
 6   2  0.6181100E+00  0.1023967E+03  0.7957747E-01  0.1276525E+00
       21   -1    0    0  501  502  0.00000000000E+00  0.00000000000E+00  0.10576506360E+02  0.10576506360E+02  0.00000000000E+00 0. -1.
        1   -1    0    0  502    0  0.00000000000E+00  0.00000000000E+00 -0.75429623830E+03  0.75429623830E+03  0.00000000000E+00 0. -1.
      -24    2    1    2    0    0  0.30175060851E+01 -0.62676728549E+02 -0.30599556974E+03  0.32267378512E+03  0.80917274163E+02 0.  0.
       11    1    3    3    0    0  0.88747423305E+01 -0.80519590187E+02 -0.21486306490E+03  0.22962644036E+03  0.00000000000E+00 0. -1.
      -12    1    3    3    0    0 -0.58572362455E+01  0.17842861637E+02 -0.91132504840E+02  0.93047344757E+02  0.00000000000E+00 0.  1.
        2    1    1    2  501    0 -0.30175060851E+01  0.62676728549E+02 -0.43772416220E+03  0.44219895954E+03  0.00000000000E+00 0. -1.
</event>
<event>
 4   3  0.6181100E+00  0.1965969E+03  0.7957747E-01  0.1158789E+00
       21   -1    0    0  501  502  0.00000000000E+00  0.00000000000E+00  0.35675612254E+03  0.35675612254E+03  0.00000000000E+00 0. -1.
       21   -1    0    0  502  503  0.00000000000E+00  0.00000000000E+00 -0.10870726715E+03  0.10870726715E+03  0.00000000000E+00 0. -1.
        6    1    1    2  501    0 -0.70409232371E+02 -0.61350501705E+02  0.13758359161E+03  0.23995747278E+03  0.17300000000E+03 0.  1.
       -6    1    1    2    0  503  0.70409232371E+02  0.61350501705E+02  0.11046526378E+03  0.22550591692E+03  0.17300000000E+03 0.  1.
</event>
<event>
 6   2  0.6181100E+00  0.9270909E+02  0.7957747E-01  0.1296598E+00
       -2   -1    0    0    0  501  0.00000000000E+00  0.00000000000E+00  0.79264630828E+02  0.79264630828E+02  0.00000000000E+00 0.  1.
        1   -1    0    0  502    0  0.00000000000E+00  0.00000000000E+00 -0.15805834410E+03  0.15805834410E+03  0.00000000000E+00 0. -1.
      -24    2    1    2    0    0  0.38065319756E+02  0.29410882090E+02 -0.13473116258E+03  0.16354650992E+03  0.79252799221E+02 0.  0.
       11    1    3    3    0    0  0.58485748980E+02  0.62369581094E+01 -0.67313180304E+02  0.89389858053E+02  0.00000000000E+00 0. -1.
      -12    1    3    3    0    0 -0.20420429223E+02  0.23173923981E+02 -0.67417982275E+02  0.74156651869E+02  0.00000000000E+00 0.  1.
       21    1    1    2  502  501 -0.38065319756E+02 -0.29410882090E+02  0.55937449308E+02  0.73776465005E+02  0.00000000000E+00 0.  1.
</event>
<event>
 5   1  0.6181100E+00  0.8101892E+02  0.7957747E-01  0.1324849E+00
        1   -1    0    0  501    0  0.00000000000E+00  0.00000000000E+00  0.69886403153E+02  0.69886403153E+02  0.00000000000E+00 0. -1.
       -2   -1    0    0    0  501  0.00000000000E+00  0.00000000000E+00 -0.23481195412E+02  0.23481195412E+02  0.00000000000E+00 0.  1.
      -24    2    1    2    0    0  0.00000000000E+00  0.00000000000E+00  0.46405207741E+02  0.93367598566E+02  0.81018918509E+02 0.  0.
       11    1    3    3    0    0 -0.35329104025E+02  0.27592129004E+01  0.45822221833E+02  0.57926115533E+02  0.00000000000E+00 0. -1.
      -12    1    3    3    0    0  0.35329104025E+02 -0.27592129004E+01  0.58298590859E+00  0.35441483033E+02  0.00000000000E+00 0.  1.
</event>
<event>
 5   1  0.6181100E+00  0.8109845E+02  0.7957747E-01  0.1324639E+00
        1   -1    0    0  501    0  0.00000000000E+00  0.00000000000E+00  0.12632404133E+03  0.12632404133E+03  0.00000000000E+00 0. -1.
       -2   -1    0    0    0  501  0.00000000000E+00  0.00000000000E+00 -0.13016046927E+02  0.13016046927E+02  0.00000000000E+00 0.  1.
      -24    2    1    2    0    0  0.00000000000E+00  0.00000000000E+00  0.11330799440E+03  0.13934008825E+03  0.81098450045E+02 0.  0.
       11    1    3    3    0    0 -0.16811510656E+02  0.23885431461E+02  0.10497978293E+03  0.10896740591E+03  0.00000000000E+00 0. -1.
      -12    1    3    3    0    0  0.16811510656E+02 -0.23885431461E+02  0.83282114723E+01  0.30372682347E+02  0.00000000000E+00 0.  1.
</event>
<event>
 6   2  0.6181100E+00  0.8411982E+02  0.7957747E-01  0.1316853E+00
       21   -1    0    0  501  502  0.00000000000E+00  0.00000000000E+00  0.20673220302E+03  0.20673220302E+03  0.00000000000E+00 0.  1.
       -2   -1    0    0    0  501  0.00000000000E+00  0.00000000000E+00 -0.35163595070E+02  0.35163595070E+02  0.00000000000E+00 0.  1.
      -24    2    1    2    0    0  0.16976967597E+02 -0.15977212063E+02  0.17305987877E+02  0.85881552951E+02  0.80824842634E+02 0.  0.
       11    1    3    3    0    0  0.22804398976E+01  0.18141072567E+02  0.38850078149E+02  0.42937483534E+02  0.00000000000E+00 0. -1.
      -12    1    3    3    0    0  0.14696527699E+02 -0.34118284630E+02 -0.21544090272E+02  0.42944069418E+02  0.00000000000E+00 0.  1.
       -1    1    1    2    0  502 -0.16976967597E+02  0.15977212063E+02  0.15426262007E+03  0.15601424513E+03  0.00000000000E+00 0.  1.
</event>
<event>
 5   1  0.6181100E+00  0.7978736E+02  0.7957747E-01  0.1328137E+00
        1   -1    0    0  501    0  0.00000000000E+00  0.00000000000E+00  0.23094667149E+02  0.23094667149E+02  0.00000000000E+00 0. -1.
       -2   -1    0    0    0  501  0.00000000000E+00  0.00000000000E+00 -0.68912257104E+02  0.68912257104E+02  0.00000000000E+00 0.  1.
      -24    2    1    2    0    0  0.00000000000E+00  0.00000000000E+00 -0.45817589955E+02  0.92006924253E+02  0.79787358405E+02 0.  0.
       11    1    3    3    0    0  0.24987063159E+02  0.46128106309E+01  0.12556464134E+02  0.28342479404E+02  0.00000000000E+00 0. -1.
      -12    1    3    3    0    0 -0.24987063159E+02 -0.46128106309E+01 -0.58374054089E+02  0.63664444849E+02  0.00000000000E+00 0.  1.
</event>
<event>
 6   2  0.6181100E+00  0.8048537E+02  0.7957747E-01  0.1326265E+00
       21   -1    0    0  501  502  0.00000000000E+00  0.00000000000E+00  0.75584369668E+01  0.75584369668E+01  0.00000000000E+00 0.  1.
       -4   -1    0    0    0  501  0.00000000000E+00  0.00000000000E+00 -0.48894057209E+03  0.48894057209E+03  0.00000000000E+00 0.  1.
      -24    2    1    2    0    0 -0.27857793151E+02 -0.66266083771E+01 -0.43184334926E+03  0.43927960778E+03  0.75219192573E+02 0.  0.
       11    1    3    3    0    0  0.24346588339E+02  0.79512444820E+01 -0.11339287113E+03  0.11624939516E+03  0.00000000000E+00 0. -1.
      -12    1    3    3    0    0 -0.52204381491E+02 -0.14577852859E+02 -0.31845047813E+03  0.32303021262E+03  0.00000000000E+00 0.  1.
       -3    1    1    2    0  502  0.27857793151E+02  0.66266083771E+01 -0.49538785856E+02  0.57219401272E+02  0.00000000000E+00 0.  1.
</event>
<event>
 5   1  0.6181100E+00  0.7901921E+02  0.7957747E-01  0.1330223E+00
       -2   -1    0    0    0  501  0.00000000000E+00  0.00000000000E+00  0.32474548557E+02  0.32474548557E+02  0.00000000000E+00 0.  1.
        1   -1    0    0  501    0  0.00000000000E+00  0.00000000000E+00 -0.48068683387E+02  0.48068683387E+02  0.00000000000E+00 0. -1.
      -24    2    1    2    0    0  0.00000000000E+00  0.00000000000E+00 -0.15594134829E+02  0.80543231944E+02  0.79019207607E+02 0.  0.
       11    1    3    3    0    0  0.18499672335E+02  0.56704979200E+01 -0.42908742560E+02  0.47069657013E+02  0.00000000000E+00 0. -1.
      -12    1    3    3    0    0 -0.18499672335E+02 -0.56704979200E+01  0.27314607731E+02  0.33473574931E+02  0.00000000000E+00 0.  1.
</event>
<event>
 5   1  0.6181100E+00  0.7702340E+02  0.7957747E-01  0.1335769E+00
        1   -1    0    0  501    0  0.00000000000E+00  0.00000000000E+00  0.10634982475E+03  0.10634982475E+03  0.00000000000E+00 0. -1.
       -2   -1    0    0    0  501  0.00000000000E+00  0.00000000000E+00 -0.13945966566E+02  0.13945966566E+02  0.00000000000E+00 0.  1.
      -24    2    1    2    0    0  0.00000000000E+00  0.00000000000E+00  0.92403858187E+02  0.12029579132E+03  0.77023401647E+02 0.  0.
       11    1    3    3    0    0 -0.25189682385E+02  0.24715852069E+02  0.70284064599E+02  0.78646317007E+02  0.00000000000E+00 0. -1.
      -12    1    3    3    0    0  0.25189682385E+02 -0.24715852069E+02  0.22119793589E+02  0.41649474313E+02  0.00000000000E+00 0.  1.
</event>
<event>
 6   2  0.6181100E+00  0.8983757E+02  0.7957747E-01  0.1303084E+00
        1   -1    0    0  502    0  0.00000000000E+00  0.00000000000E+00  0.13137057074E+03  0.13137057074E+03  0.00000000000E+00 0. -1.
       21   -1    0    0  501  502  0.00000000000E+00  0.00000000000E+00 -0.79914887266E+02  0.79914887266E+02  0.00000000000E+00 0. -1.
      -24    2    1    2    0    0 -0.26022544326E+02 -0.15781605782E+02  0.11196640728E+03  0.14355230814E+03  0.84525480882E+02 0.  0.
       11    1    3    3    0    0 -0.33547593726E+02 -0.39744833217E+02  0.10548850071E+03  0.11761342013E+03  0.00000000000E+00 0. -1.
      -12    1    3    3    0    0  0.75250494009E+01  0.23963227434E+02  0.64779065684E+01  0.25938888008E+02  0.00000000000E+00 0.  1.
        2    1    1    2  501    0  0.26022544326E+02  0.15781605782E+02 -0.60510723811E+02  0.67733149863E+02  0.00000000000E+00 0. -1.
</event>
<event>
 6   2  0.6181100E+00  0.1437639E+03  0.7957747E-01  0.1212445E+00
       21   -1    0    0  501  502  0.00000000000E+00  0.00000000000E+00  0.30432560824E+02  0.30432560824E+02  0.00000000000E+00 0.  1.
       -2   -1    0    0    0  501  0.00000000000E+00  0.00000000000E+00 -0.10181868382E+04  0.10181868382E+04  0.00000000000E+00 0.  1.
      -24    2    1    2    0    0  0.11432357903E+03 -0.34657232029E+02 -0.86671072060E+03  0.87855309697E+03  0.79981663746E+02 0.  0.
       11    1    3    3    0    0  0.32012413703E+01 -0.17657837319E+02 -0.35529779465E+02  0.39804678041E+02  0.00000000000E+00 0. -1.
      -12    1    3    3    0    0  0.11112233766E+03 -0.16999394710E+02 -0.83118094114E+03  0.83874841893E+03  0.00000000000E+00 0.  1.
       -1    1    1    2    0  502 -0.11432357903E+03  0.34657232029E+02 -0.12104355674E+03  0.17006630202E+03  0.00000000000E+00 0.  1.
</event>
<event>
 4   3  0.6181100E+00  0.1740226E+03  0.7957747E-01  0.1179125E+00
       21   -1    0    0  501  502  0.00000000000E+00  0.00000000000E+00  0.22350583653E+03  0.22350583653E+03  0.00000000000E+00 0.  1.
       21   -1    0    0  502  503  0.00000000000E+00  0.00000000000E+00 -0.14522730803E+03  0.14522730803E+03  0.00000000000E+00 0.  1.
        6    1    1    2  501    0 -0.13846979728E+02 -0.12771650265E+02  0.86867226336E+02  0.19449876326E+03  0.17300000000E+03 0.  1.
       -6    1    1    2    0  503  0.13846979728E+02  0.12771650265E+02 -0.85886978337E+01  0.17423438130E+03  0.17300000000E+03 0.  1.
</event>
<event>
 5   1  0.6181100E+00  0.8143339E+02  0.7957747E-01  0.1323757E+00
        3   -1    0    0  501    0  0.00000000000E+00  0.00000000000E+00  0.91951214317E+02  0.91951214317E+02  0.00000000000E+00 0. -1.
       -4   -1    0    0    0  501  0.00000000000E+00  0.00000000000E+00 -0.18029660508E+02  0.18029660508E+02  0.00000000000E+00 0.  1.
      -24    2    1    2    0    0  0.00000000000E+00  0.00000000000E+00  0.73921553809E+02  0.10998087483E+03  0.81433388176E+02 0.  0.
       11    1    3    3    0    0  0.42289777808E+01 -0.17492919603E+02  0.86287981711E+02  0.88144780203E+02  0.00000000000E+00 0. -1.
      -12    1    3    3    0    0 -0.42289777808E+01  0.17492919603E+02 -0.12366427902E+02  0.21836094622E+02  0.00000000000E+00 0.  1.
</event>
<event>
 4   3  0.6181100E+00  0.2637700E+03  0.7957747E-01  0.1112553E+00
       21   -1    0    0  503  502  0.00000000000E+00  0.00000000000E+00  0.12962356536E+03  0.12962356536E+03  0.00000000000E+00 0. -1.
       21   -1    0    0  501  503  0.00000000000E+00  0.00000000000E+00 -0.64139640213E+03  0.64139640213E+03  0.00000000000E+00 0.  1.
        6    1    1    2  501    0 -0.69171484299E+02  0.18671074844E+03 -0.41160776169E+03  0.48887170843E+03  0.17300000000E+03 0.  1.
       -6    1    1    2    0  502  0.69171484299E+02 -0.18671074844E+03 -0.10016507507E+03  0.28214825905E+03  0.17300000000E+03 0. -1.
</event>
</LesHouchesEvents>
